                         Program Version 4.2.0 -  RELEASE  -
|  1> #
|  2> # 01_H2O tpssh/aug-cc-pvt(+d)z
|  3> #
|  4> ! tpssh d3bj aug-cc-pvt(+d)z def2/jk grid4 nofinalgrid opt xyzfile numfreq
|  5>
|  6> *xyz 0 1
|  7> O	0	0	0.12434822
|  8> H	0	-1.43139324	-0.98674827
|  9> H	0	1.43139324	-0.98674827
| 10> *
| 11>
| 12> %maxcore 5000
| 13>
| 14> %pal
| 15> nprocs 24
| 16> end
| 17>
| 18>
| 19>                          ****END OF INPUT****
 Total Charge           Charge          ....    0
 Multiplicity           Mult            ....    1
 Number of Electrons    NEL             ....   10
Dispersion correction           -0.000665618
FINAL SINGLE POINT ENERGY       -76.153193254282
Dispersion correction            ... done
Dispersion correction           -0.000686701
FINAL SINGLE POINT ENERGY       -76.191377722221
Dispersion correction            ... done
Dispersion correction           -0.000700730
FINAL SINGLE POINT ENERGY       -76.233431156152
Dispersion correction            ... done
FINAL SINGLE POINT ENERGY       -76.278991088747
FINAL SINGLE POINT ENERGY       -76.327086191044
FINAL SINGLE POINT ENERGY       -76.375485156698
FINAL SINGLE POINT ENERGY       -76.419922625519
FINAL SINGLE POINT ENERGY       -76.451613550383
FINAL SINGLE POINT ENERGY       -76.455471118448
FINAL SINGLE POINT ENERGY       -76.458423455643
FINAL SINGLE POINT ENERGY       -76.458554588429
FINAL SINGLE POINT ENERGY       -76.458557360013
Dispersion correction            ... done
Dispersion correction           -0.000368587
FINAL SINGLE POINT ENERGY       -76.458416848179
Dispersion correction            ... done
Dispersion correction           -0.000368597
FINAL SINGLE POINT ENERGY       -76.458557950336
Dispersion correction            ... done
                    ***********************HURRAY********************

CARTESIAN COORDINATES (ANGSTROEM)
---------------------------------
  O      0.000000   -0.000000   -0.222502
  H      0.000000   -0.762046   -0.813322
  H      0.000000    0.762047   -0.813325

 Multiplicity           Mult            ....    1
 Number of Electrons    NEL             ....   10
 Basis Dimension        Dim             ....   92

ORBITAL ENERGIES
----------------

  NO   OCC          E(Eh)            E(eV)
   0   2.0000     -19.060718      -518.6685
   1   2.0000      -0.993788       -27.0424
   2   2.0000      -0.513154       -13.9636
   3   2.0000      -0.373658       -10.1678
   4   2.0000      -0.295602        -8.0437
   5   0.0000      -0.020995        -0.5713
   6   0.0000       0.023506         0.6396
   7   0.0000       0.079694         2.1686
   8   0.0000       0.098803         2.6886
   9   0.0000       0.106309         2.8928

MULLIKEN ATOMIC CHARGES
-----------------------
   0 O :   -0.342322
   1 H :    0.171160
   2 H :    0.171162
Sum of atomic charges:   -0.0000000

LOEWDIN ATOMIC CHARGES
----------------------
   0 O :    1.026787
   1 H :   -0.513396
   2 H :   -0.513391

  Mayer bond orders larger than 0.100000
B(  0-O ,  1-H ) :   1.0205 B(  0-O ,  2-H ) :   1.0205

Dispersion correction           -0.000368597
FINAL SINGLE POINT ENERGY       -76.458557975069

DIPOLE MOMENT
-------------
                                X             Y             Z
Electronic contribution:     -0.00000      -0.00000       0.26261
Nuclear contribution   :      0.00000       0.00000      -0.98355
                        -----------------------------------------
Total Dipole Moment    :     -0.00000      -0.00000      -0.72095
                        -----------------------------------------
Magnitude (a.u.)       :      0.72095
Magnitude (Debye)      :      1.83250

VIBRATIONAL FREQUENCIES
-----------------------

Scaling factor for frequencies =  1.000000000 (already applied!)

   0:         0.00 cm**-1
   1:         0.00 cm**-1
   2:         0.00 cm**-1
   3:         0.00 cm**-1
   4:         0.00 cm**-1
   5:         0.00 cm**-1
   6:      1643.79 cm**-1
   7:      3764.76 cm**-1
   8:      3868.22 cm**-1

IR SPECTRUM
-----------

 Mode    freq (cm**-1)   T**2         TX         TY         TZ
-------------------------------------------------------------------
   6:      1643.79   70.282858  (  0.000003  -0.000006  -8.383487)
   7:      3764.76    2.571959  (  0.000001  -0.001183   1.603732)
   8:      3868.22   49.585964  ( -0.000003   7.041730   0.000268)

--------------------------
THERMOCHEMISTRY AT 298.15K
--------------------------

Temperature         ... 298.15 K
Pressure            ... 1.00 atm
Total Mass          ... 18.02 AMU

Throughout the following assumptions are being made:
  (1) The electronic state is orbitally nondegenerate
  (2) There are no thermally accessible electronically excited states
  (3) Hindered rotations indicated by low frequency modes are not
      treated as such but are treated as vibrations and this may
      cause some error
  (4) All equations used are the standard statistical mechanics
      equations for an ideal gas
  (5) All vibrations are strictly harmonic

freq.    1643.79  E(vib)   ...       0.00
freq.    3764.76  E(vib)   ...       0.00
freq.    3868.22  E(vib)   ...       0.00

------------
INNER ENERGY
------------

The inner energy is: U= E(el) + E(ZPE) + E(vib) + E(rot) + E(trans)
    E(el)   - is the total energy from the electronic structure calculation
              = E(kin-el) + E(nuc-el) + E(el-el) + E(nuc-nuc)
    E(ZPE)  - the the zero temperature vibrational energy from the frequency calculation
    E(vib)  - the the finite temperature correction to E(ZPE) due to population
              of excited vibrational states
    E(rot)  - is the rotational thermal energy
    E(trans)- is the translational thermal energy

Summary of contributions to the inner energy U:
Electronic energy                ...    -76.45855798 Eh
Zero point energy                ...      0.02113405 Eh      13.26 kcal/mol
Thermal vibrational correction   ...      0.00000269 Eh       0.00 kcal/mol
Thermal rotational correction    ...      0.00141627 Eh       0.89 kcal/mol
Thermal translational correction ...      0.00141627 Eh       0.89 kcal/mol
-----------------------------------------------------------------------
Total thermal energy                    -76.43458869 Eh

Summary of corrections to the electronic energy:
(perhaps to be used in another calculation)
Total thermal correction                  0.00283523 Eh       1.78 kcal/mol
Non-thermal (ZPE) correction              0.02113405 Eh      13.26 kcal/mol
-----------------------------------------------------------------------
Total correction                          0.02396928 Eh      15.04 kcal/mol

--------
ENTHALPY
--------

The enthalpy is H = U + kB*T
                kB is Boltzmann's constant
Total free energy                 ...    -76.43458869 Eh
Thermal Enthalpy correction       ...      0.00094421 Eh       0.59 kcal/mol
-----------------------------------------------------------------------
Total Enthalpy                    ...    -76.43364449 Eh

Note: Rotational entropy computed according to Herzberg
Infrared and Raman Spectra, Chapter V,1, Van Nostrand Reinhold, 1945
Point Group:  Cs, Symmetry Number:   1
Rotational constants in cm-1:    26.973377    14.399361     9.387810

Vibrational entropy computed according to the QRRHO of S. Grimme
Chem.Eur.J. 2012 18 9955

-------
ENTROPY
-------

The entropy contributions are T*S = T*(S(el)+S(vib)+S(rot)+S(trans))
     S(el)   - electronic entropy
     S(vib)  - vibrational entropy
     S(rot)  - rotational entropy
     S(trans)- translational entropy
The entropies will be listed as mutliplied by the temperature to get
units of energy

Electronic entropy                ...      0.00000000 Eh      0.00 kcal/mol
Vibrational entropy               ...      0.00000303 Eh      0.00 kcal/mol
Rotational entropy                ...      0.00563899 Eh      3.54 kcal/mol
Translational entropy             ...      0.01644380 Eh     10.32 kcal/mol
-----------------------------------------------------------------------
Final entropy term                ...      0.02208582 Eh     13.86 kcal/mol

In case the symmetry of your molecule has not been determined correctly
or in case you have a reason to use a different symmetry number we print
out the resulting rotational entropy values for sn=1,12 :
 --------------------------------------------------------
|  sn= 1 | S(rot)=       0.00563899 Eh      3.54 kcal/mol|
|  sn= 2 | S(rot)=       0.00498453 Eh      3.13 kcal/mol|
|  sn= 3 | S(rot)=       0.00460170 Eh      2.89 kcal/mol|
|  sn= 4 | S(rot)=       0.00433007 Eh      2.72 kcal/mol|
|  sn= 5 | S(rot)=       0.00411938 Eh      2.58 kcal/mol|
|  sn= 6 | S(rot)=       0.00394724 Eh      2.48 kcal/mol|
|  sn= 7 | S(rot)=       0.00380169 Eh      2.39 kcal/mol|
|  sn= 8 | S(rot)=       0.00367562 Eh      2.31 kcal/mol|
|  sn= 9 | S(rot)=       0.00356441 Eh      2.24 kcal/mol|
|  sn=10 | S(rot)=       0.00346493 Eh      2.17 kcal/mol|
|  sn=11 | S(rot)=       0.00337494 Eh      2.12 kcal/mol|
|  sn=12 | S(rot)=       0.00329278 Eh      2.07 kcal/mol|
 --------------------------------------------------------

-------------------
GIBBS FREE ENERGY
-------------------

The Gibbs free energy is G = H - T*S

Total enthalpy                    ...    -76.43364449 Eh
Total entropy correction          ...     -0.02208582 Eh    -13.86 kcal/mol
-----------------------------------------------------------------------
Final Gibbs free energy         ...    -76.45573030 Eh

For completeness - the Gibbs free energy minus the electronic energy
G-E(el)                           ...      0.00282767 Eh      1.77 kcal/mol

                             ****ORCA TERMINATED NORMALLY****
TOTAL RUN TIME: 0 days 0 hours 1 minutes 4 seconds 158 msec
