                         Program Version 4.2.0 -  RELEASE  -
|  1> #
|  2> # 02_H2O_2 tpssh/aug-cc-pvt(+d)z
|  3> #
|  4> ! tpssh d3bj aug-cc-pvt(+d)z def2/jk grid4 nofinalgrid opt xyzfile numfreq
|  5>
|  6> *xyz 0 1
|  7> O	0.12629641	2.81863838	0
|  8> H	-1.55012056	3.50228598	0
|  9> H	-0.11213325	1.01044862	0
| 10> O	-0.11743248	-2.68035303	0
| 11> H	0.7607884	-3.35371171	-1.4365769
| 12> H	0.7607884	-3.35371171	1.4365769
| 13> *
| 14>
| 15> %maxcore 5000
| 16>
| 17> %pal
| 18> nprocs 24
| 19> end
| 20>
| 21>
| 22>                          ****END OF INPUT****
 Total Charge           Charge          ....    0
 Multiplicity           Mult            ....    1
 Number of Electrons    NEL             ....   20
Dispersion correction           -0.001492241
FINAL SINGLE POINT ENERGY      -152.306050977486
Dispersion correction            ... done
Dispersion correction           -0.001529554
FINAL SINGLE POINT ENERGY      -152.359003657178
Dispersion correction            ... done
Dispersion correction           -0.001561055
FINAL SINGLE POINT ENERGY      -152.415897448293
Dispersion correction            ... done
FINAL SINGLE POINT ENERGY      -152.476600332350
FINAL SINGLE POINT ENERGY      -152.540811857589
FINAL SINGLE POINT ENERGY      -152.607907095541
FINAL SINGLE POINT ENERGY      -152.676692367858
FINAL SINGLE POINT ENERGY      -152.745209466569
FINAL SINGLE POINT ENERGY      -152.810429184056
FINAL SINGLE POINT ENERGY      -152.867213882702
FINAL SINGLE POINT ENERGY      -152.925108777396
FINAL SINGLE POINT ENERGY      -152.925110792607
FINAL SINGLE POINT ENERGY      -152.925143039087
FINAL SINGLE POINT ENERGY      -152.925149257161
FINAL SINGLE POINT ENERGY      -152.925152904443
FINAL SINGLE POINT ENERGY      -152.925152962049
FINAL SINGLE POINT ENERGY      -152.925156330832
Dispersion correction            ... done
Dispersion correction           -0.001499929
FINAL SINGLE POINT ENERGY      -152.925161811329
Dispersion correction            ... done
Dispersion correction           -0.001501221
FINAL SINGLE POINT ENERGY      -152.925159713025
Dispersion correction            ... done
                    ***********************HURRAY********************

CARTESIAN COORDINATES (ANGSTROEM)
---------------------------------
  O      0.066229    1.299926   -0.000660
  H     -0.822649    1.670983    0.000365
  H     -0.069640    0.335650    0.000195
  O     -0.102570   -1.582194    0.000223
  H      0.398175   -1.890105   -0.764968
  H      0.398642   -1.890664    0.764845

 Multiplicity           Mult            ....    1
 Number of Electrons    NEL             ....   20
 Basis Dimension        Dim             ....  184

ORBITAL ENERGIES
----------------

  NO   OCC          E(Eh)            E(eV)
   0   2.0000     -19.088022      -519.4115
   1   2.0000     -19.029312      -517.8139
   2   2.0000      -1.021994       -27.8099
   3   2.0000      -0.962247       -26.1841
   4   2.0000      -0.539948       -14.6927
   5   2.0000      -0.487102       -13.2547
   6   2.0000      -0.404488       -11.0067
   7   2.0000      -0.347751        -9.4628
   8   2.0000      -0.319911        -8.7052
   9   2.0000      -0.268643        -7.3101
  10   0.0000      -0.032081        -0.8730
  11   0.0000       0.007860         0.2139
  12   0.0000       0.017664         0.4807
  13   0.0000       0.046911         1.2765
  14   0.0000       0.071065         1.9338

MULLIKEN ATOMIC CHARGES
-----------------------
   0 O :   -0.416824
   1 H :    0.142544
   2 H :    0.276096
   3 O :   -0.347686
   4 H :    0.172965
   5 H :    0.172905
Sum of atomic charges:   -0.0000000

LOEWDIN ATOMIC CHARGES
----------------------
   0 O :    1.031965
   1 H :   -0.515222
   2 H :   -0.677645
   3 O :    1.086846
   4 H :   -0.462936
   5 H :   -0.463007

  Mayer bond orders larger than 0.100000
B(  0-O ,  1-H ) :   1.0698 B(  0-O ,  2-H ) :   0.9108 B(  3-O ,  4-H ) :   1.0144
B(  3-O ,  5-H ) :   1.0145

Dispersion correction           -0.001500496
FINAL SINGLE POINT ENERGY      -152.925160431033

DIPOLE MOMENT
-------------
                                X             Y             Z
Electronic contribution:      0.01999       0.00042      -0.00026
Nuclear contribution   :     -0.01897      -1.00682       0.00109
                        -----------------------------------------
Total Dipole Moment    :      0.00102      -1.00641       0.00083
                        -----------------------------------------
Magnitude (a.u.)       :      1.00641
Magnitude (Debye)      :      2.55809

VIBRATIONAL FREQUENCIES
-----------------------

Scaling factor for frequencies =  1.000000000 (already applied!)

   0:         0.00 cm**-1
   1:         0.00 cm**-1
   2:         0.00 cm**-1
   3:         0.00 cm**-1
   4:         0.00 cm**-1
   5:         0.00 cm**-1
   6:       141.78 cm**-1
   7:       170.13 cm**-1
   8:       174.94 cm**-1
   9:       191.25 cm**-1
  10:       386.83 cm**-1
  11:       654.57 cm**-1
  12:      1642.47 cm**-1
  13:      1665.19 cm**-1
  14:      3609.42 cm**-1
  15:      3760.20 cm**-1
  16:      3836.52 cm**-1
  17:      3860.33 cm**-1

IR SPECTRUM
-----------

 Mode    freq (cm**-1)   T**2         TX         TY         TZ
-------------------------------------------------------------------
   6:       141.78  158.871239  ( -0.005909   0.014670 -12.604404)
   7:       170.13    4.262167  (  0.094188   0.309152  -2.039049)
   8:       174.94    1.222287  (  0.637690   0.903127   0.000929)
   9:       191.25  281.301335  ( -4.366182 -16.193668  -0.053892)
  10:       386.83   44.109328  (  6.641439  -0.021306   0.012552)
  11:       654.57   86.330682  (  0.010322   0.012397   9.291417)
  12:      1642.47   86.236921  ( -8.461098   3.827102   0.006095)
  13:      1665.19   35.723983  (  4.624670   3.786331  -0.010324)
  14:      3609.42  372.484758  (  1.324745 -19.254345   0.004371)
  15:      3760.20    7.970335  (  2.507326  -1.297427  -0.018219)
  16:      3836.52   65.495641  (  3.273422  -7.401375   0.000696)
  17:      3860.33   71.403403  (  0.006597  -0.004408   8.450050)

--------------------------
THERMOCHEMISTRY AT 298.15K
--------------------------

Temperature         ... 298.15 K
Pressure            ... 1.00 atm
Total Mass          ... 36.03 AMU

Throughout the following assumptions are being made:
  (1) The electronic state is orbitally nondegenerate
  (2) There are no thermally accessible electronically excited states
  (3) Hindered rotations indicated by low frequency modes are not
      treated as such but are treated as vibrations and this may
      cause some error
  (4) All equations used are the standard statistical mechanics
      equations for an ideal gas
  (5) All vibrations are strictly harmonic

freq.     141.78  E(vib)   ...       0.41
freq.     170.13  E(vib)   ...       0.38
freq.     174.94  E(vib)   ...       0.38
freq.     191.25  E(vib)   ...       0.36
freq.     386.83  E(vib)   ...       0.20
freq.     654.57  E(vib)   ...       0.08
freq.    1642.47  E(vib)   ...       0.00
freq.    1665.19  E(vib)   ...       0.00
freq.    3609.42  E(vib)   ...       0.00
freq.    3760.20  E(vib)   ...       0.00
freq.    3836.52  E(vib)   ...       0.00
freq.    3860.33  E(vib)   ...       0.00

------------
INNER ENERGY
------------

The inner energy is: U= E(el) + E(ZPE) + E(vib) + E(rot) + E(trans)
    E(el)   - is the total energy from the electronic structure calculation
              = E(kin-el) + E(nuc-el) + E(el-el) + E(nuc-nuc)
    E(ZPE)  - the the zero temperature vibrational energy from the frequency calculation
    E(vib)  - the the finite temperature correction to E(ZPE) due to population
              of excited vibrational states
    E(rot)  - is the rotational thermal energy
    E(trans)- is the translational thermal energy

Summary of contributions to the inner energy U:
Electronic energy                ...   -152.92516043 Eh
Zero point energy                ...      0.04577665 Eh      28.73 kcal/mol
Thermal vibrational correction   ...      0.00290239 Eh       1.82 kcal/mol
Thermal rotational correction    ...      0.00141627 Eh       0.89 kcal/mol
Thermal translational correction ...      0.00141627 Eh       0.89 kcal/mol
-----------------------------------------------------------------------
Total thermal energy                   -152.87364884 Eh

Summary of corrections to the electronic energy:
(perhaps to be used in another calculation)
Total thermal correction                  0.00573494 Eh       3.60 kcal/mol
Non-thermal (ZPE) correction              0.04577665 Eh      28.73 kcal/mol
-----------------------------------------------------------------------
Total correction                          0.05151159 Eh      32.32 kcal/mol

--------
ENTHALPY
--------

The enthalpy is H = U + kB*T
                kB is Boltzmann's constant
Total free energy                 ...   -152.87364884 Eh
Thermal Enthalpy correction       ...      0.00094421 Eh       0.59 kcal/mol
-----------------------------------------------------------------------
Total Enthalpy                    ...   -152.87270463 Eh

Note: Only C1 symmetry has been detected, increase convergence thresholds
      if your molecule has a higher symmetry. Symmetry factor of 1.0 is
      used for the rotational entropy correction.

Note: Rotational entropy computed according to Herzberg
Infrared and Raman Spectra, Chapter V,1, Van Nostrand Reinhold, 1945
Point Group:  C1, Symmetry Number:   1
Rotational constants in cm-1:     7.021564     0.218063     0.217945

Vibrational entropy computed according to the QRRHO of S. Grimme
Chem.Eur.J. 2012 18 9955

-------
ENTROPY
-------

The entropy contributions are T*S = T*(S(el)+S(vib)+S(rot)+S(trans))
     S(el)   - electronic entropy
     S(vib)  - vibrational entropy
     S(rot)  - rotational entropy
     S(trans)- translational entropy
The entropies will be listed as mutliplied by the temperature to get
units of energy

Electronic entropy                ...      0.00000000 Eh      0.00 kcal/mol
Vibrational entropy               ...      0.00528807 Eh      3.32 kcal/mol
Rotational entropy                ...      0.01002893 Eh      6.29 kcal/mol
Translational entropy             ...      0.01742549 Eh     10.93 kcal/mol
-----------------------------------------------------------------------
Final entropy term                ...      0.03274248 Eh     20.55 kcal/mol

In case the symmetry of your molecule has not been determined correctly
or in case you have a reason to use a different symmetry number we print
out the resulting rotational entropy values for sn=1,12 :
 --------------------------------------------------------
|  sn= 1 | S(rot)=       0.01002893 Eh      6.29 kcal/mol|
|  sn= 2 | S(rot)=       0.00937447 Eh      5.88 kcal/mol|
|  sn= 3 | S(rot)=       0.00899164 Eh      5.64 kcal/mol|
|  sn= 4 | S(rot)=       0.00872002 Eh      5.47 kcal/mol|
|  sn= 5 | S(rot)=       0.00850933 Eh      5.34 kcal/mol|
|  sn= 6 | S(rot)=       0.00833718 Eh      5.23 kcal/mol|
|  sn= 7 | S(rot)=       0.00819164 Eh      5.14 kcal/mol|
|  sn= 8 | S(rot)=       0.00806556 Eh      5.06 kcal/mol|
|  sn= 9 | S(rot)=       0.00795435 Eh      4.99 kcal/mol|
|  sn=10 | S(rot)=       0.00785487 Eh      4.93 kcal/mol|
|  sn=11 | S(rot)=       0.00776488 Eh      4.87 kcal/mol|
|  sn=12 | S(rot)=       0.00768273 Eh      4.82 kcal/mol|
 --------------------------------------------------------

-------------------
GIBBS FREE ENERGY
-------------------

The Gibbs free energy is G = H - T*S

Total enthalpy                    ...   -152.87270463 Eh
Total entropy correction          ...     -0.03274248 Eh    -20.55 kcal/mol
-----------------------------------------------------------------------
Final Gibbs free energy         ...   -152.90544712 Eh

For completeness - the Gibbs free energy minus the electronic energy
G-E(el)                           ...      0.01971331 Eh     12.37 kcal/mol

                             ****ORCA TERMINATED NORMALLY****
TOTAL RUN TIME: 0 days 0 hours 5 minutes 18 seconds 755 msec
