                         Program Version 4.2.0 -  RELEASE  -
|  1> #
|  2> # 03_H2O_3 tpssh/aug-cc-pvt(+d)z
|  3> #
|  4> ! tpssh d3bj aug-cc-pvt(+d)z def2/jk grid4 nofinalgrid opt xyzfile numfreq
|  5>
|  6> *xyz 0 1
|  7> O	-1.476811	-0.647642	-0.082126
|  8> H	-0.613415	-1.087457	-0.037065
|  9> H	-2.026236	-1.086841	0.568502
| 10> O	1.305672	-0.945117	-0.091536
| 11> H	1.973931	-1.196903	0.547209
| 12> H	1.22684	0.019839	-0.021857
| 13> O	0.169678	1.599733	0.108456
| 14> H	-0.629586	1.051269	0.060063
| 15> H	0.080159	2.244313	-0.595195
| 16> *
| 17>
| 18> %maxcore 5000
| 19>
| 20> %pal
| 21> nprocs 24
| 22> end
| 23>
| 24>
| 25>                          ****END OF INPUT****
 Total Charge           Charge          ....    0
 Multiplicity           Mult            ....    1
 Number of Electrons    NEL             ....   30
Dispersion correction           -0.003489257
FINAL SINGLE POINT ENERGY      -229.400748901012
Dispersion correction            ... done
Dispersion correction           -0.003492847
FINAL SINGLE POINT ENERGY      -229.401024844229
Dispersion correction            ... done
Dispersion correction           -0.003516384
FINAL SINGLE POINT ENERGY      -229.401104621207
Dispersion correction            ... done
FINAL SINGLE POINT ENERGY      -229.401133169182
FINAL SINGLE POINT ENERGY      -229.401138350827
FINAL SINGLE POINT ENERGY      -229.401170502659
FINAL SINGLE POINT ENERGY      -229.401197410982
FINAL SINGLE POINT ENERGY      -229.401233634730
FINAL SINGLE POINT ENERGY      -229.401252779554
FINAL SINGLE POINT ENERGY      -229.401262913931
FINAL SINGLE POINT ENERGY      -229.401274423794
FINAL SINGLE POINT ENERGY      -229.401287715059
FINAL SINGLE POINT ENERGY      -229.401301232386
Dispersion correction            ... done
Dispersion correction           -0.003573698
FINAL SINGLE POINT ENERGY      -229.401309759944
Dispersion correction            ... done
Dispersion correction           -0.003574790
FINAL SINGLE POINT ENERGY      -229.401312542656
Dispersion correction            ... done
                    ***********************HURRAY********************

CARTESIAN COORDINATES (ANGSTROEM)
---------------------------------
  O     -1.452304   -0.652085   -0.115560
  H     -0.565339   -1.067228   -0.053337
  H     -1.970146   -1.026565    0.605064
  O      1.297123   -0.917549   -0.133899
  H      1.901089   -1.186051    0.566675
  H      1.178885    0.051705   -0.025121
  O      0.149530    1.575407    0.150151
  H     -0.639684    0.996953    0.064287
  H      0.111077    2.176608   -0.601809

 Multiplicity           Mult            ....    1
 Number of Electrons    NEL             ....   30
 Basis Dimension        Dim             ....  276

ORBITAL ENERGIES
----------------

  NO   OCC          E(Eh)            E(eV)
   0   2.0000     -19.059526      -518.6361
   1   2.0000     -19.057849      -518.5904
   2   2.0000     -19.056768      -518.5610
   3   2.0000      -1.003681       -27.3116
   4   2.0000      -0.985871       -26.8269
   5   2.0000      -0.984079       -26.7781
   6   2.0000      -0.533918       -14.5286
   7   2.0000      -0.505336       -13.7509
   8   2.0000      -0.502644       -13.6777
   9   2.0000      -0.390556       -10.6276
  10   2.0000      -0.384872       -10.4729
  11   2.0000      -0.357288        -9.7223
  12   2.0000      -0.306697        -8.3456
  13   2.0000      -0.297603        -8.0982
  14   2.0000      -0.293353        -7.9825
  15   0.0000      -0.024662        -0.6711
  16   0.0000       0.003390         0.0922
  17   0.0000       0.004825         0.1313
  18   0.0000       0.036808         1.0016
  19   0.0000       0.045791         1.2460

MULLIKEN ATOMIC CHARGES
-----------------------
   0 O :   -0.408628
   1 H :    0.275555
   2 H :    0.135608
   3 O :   -0.430103
   4 H :    0.134771
   5 H :    0.287679
   6 O :   -0.408595
   7 H :    0.290447
   8 H :    0.123266
Sum of atomic charges:    0.0000000

LOEWDIN ATOMIC CHARGES
----------------------
   0 O :    1.094716
   1 H :   -0.621022
   2 H :   -0.463815
   3 O :    1.091404
   4 H :   -0.467133
   5 H :   -0.633210
   6 O :    1.092878
   7 H :   -0.631752
   8 H :   -0.462066

  Mayer bond orders larger than 0.100000
B(  0-O ,  1-H ) :   0.8675 B(  0-O ,  2-H ) :   1.0555 B(  3-O ,  4-H ) :   1.0587
B(  3-O ,  5-H ) :   0.8468 B(  6-O ,  7-H ) :   0.8466 B(  6-O ,  8-H ) :   1.0658

Dispersion correction           -0.003574920
FINAL SINGLE POINT ENERGY      -229.401313498442

DIPOLE MOMENT
-------------
                                X             Y             Z
Electronic contribution:     -0.02240       0.01615      -0.17487
Nuclear contribution   :      0.02263      -0.05504       0.62791
                        -----------------------------------------
Total Dipole Moment    :      0.00023      -0.03889       0.45305
                        -----------------------------------------
Magnitude (a.u.)       :      0.45471
Magnitude (Debye)      :      1.15579

VIBRATIONAL FREQUENCIES
-----------------------

Scaling factor for frequencies =  1.000000000 (already applied!)

   0:         0.00 cm**-1
   1:         0.00 cm**-1
   2:         0.00 cm**-1
   3:         0.00 cm**-1
   4:         0.00 cm**-1
   5:         0.00 cm**-1
   6:       193.49 cm**-1
   7:       200.08 cm**-1
   8:       223.73 cm**-1
   9:       231.14 cm**-1
  10:       234.31 cm**-1
  11:       271.82 cm**-1
  12:       380.78 cm**-1
  13:       397.15 cm**-1
  14:       482.61 cm**-1
  15:       632.12 cm**-1
  16:       712.31 cm**-1
  17:       946.55 cm**-1
  18:      1651.28 cm**-1
  19:      1654.68 cm**-1
  20:      1674.37 cm**-1
  21:      3413.37 cm**-1
  22:      3490.52 cm**-1
  23:      3504.51 cm**-1
  24:      3828.53 cm**-1
  25:      3832.45 cm**-1
  26:      3835.68 cm**-1

IR SPECTRUM
-----------

 Mode    freq (cm**-1)   T**2         TX         TY         TZ
-------------------------------------------------------------------
   6:       193.49   22.145880  (  2.614076  -3.667193  -1.365349)
   7:       200.08   14.201095  (  2.948945   2.049170  -1.142683)
   8:       223.73  113.390389  ( -8.593449  -5.791163  -2.450602)
   9:       231.14    9.861698  ( -2.978443  -0.766691  -0.634633)
  10:       234.31  121.421827  (  4.070929  -8.451287  -5.781445)
  11:       271.82   52.401637  (  1.952731  -6.845200   1.315950)
  12:       380.78   79.298806  ( -5.840593   6.721495   0.088204)
  13:       397.15   24.586630  ( -4.845913  -0.192894   1.032737)
  14:       482.61  122.880206  (  5.993053   7.808820  -5.097633)
  15:       632.12  181.651111  ( 11.115079   7.173632   2.577814)
  16:       712.31  284.013093  (  9.587765 -10.005498  -9.590509)
  17:       946.55    8.093489  ( -0.609890  -1.270133   2.471495)
  18:      1651.28   46.081089  (  3.796381   5.575737   0.761406)
  19:      1654.68   94.656701  ( -5.266500   3.084267  -7.576805)
  20:      1674.37   12.438838  ( -0.420084   1.136652  -3.312158)
  21:      3413.37   18.917741  ( -4.035594   1.621842  -0.036745)
  22:      3490.52  697.731009  ( -0.747988 -26.401316   0.376848)
  23:      3504.51  646.291497  (-25.405948   0.761555   0.499329)
  24:      3828.53   82.397456  (  2.778133   7.255319  -4.694654)
  25:      3832.45   76.858635  ( -8.134462   3.269397   0.014244)
  26:      3835.68   27.806439  (  2.033208   2.748333  -4.014869)

--------------------------
THERMOCHEMISTRY AT 298.15K
--------------------------

Temperature         ... 298.15 K
Pressure            ... 1.00 atm
Total Mass          ... 54.05 AMU

Throughout the following assumptions are being made:
  (1) The electronic state is orbitally nondegenerate
  (2) There are no thermally accessible electronically excited states
  (3) Hindered rotations indicated by low frequency modes are not
      treated as such but are treated as vibrations and this may
      cause some error
  (4) All equations used are the standard statistical mechanics
      equations for an ideal gas
  (5) All vibrations are strictly harmonic

freq.     193.49  E(vib)   ...       0.36
freq.     200.08  E(vib)   ...       0.35
freq.     223.73  E(vib)   ...       0.33
freq.     231.14  E(vib)   ...       0.32
freq.     234.31  E(vib)   ...       0.32
freq.     271.82  E(vib)   ...       0.29
freq.     380.78  E(vib)   ...       0.21
freq.     397.15  E(vib)   ...       0.20
freq.     482.61  E(vib)   ...       0.15
freq.     632.12  E(vib)   ...       0.09
freq.     712.31  E(vib)   ...       0.07
freq.     946.55  E(vib)   ...       0.03
freq.    1651.28  E(vib)   ...       0.00
freq.    1654.68  E(vib)   ...       0.00
freq.    1674.37  E(vib)   ...       0.00
freq.    3413.37  E(vib)   ...       0.00
freq.    3490.52  E(vib)   ...       0.00
freq.    3504.51  E(vib)   ...       0.00
freq.    3828.53  E(vib)   ...       0.00
freq.    3832.45  E(vib)   ...       0.00
freq.    3835.68  E(vib)   ...       0.00

------------
INNER ENERGY
------------

The inner energy is: U= E(el) + E(ZPE) + E(vib) + E(rot) + E(trans)
    E(el)   - is the total energy from the electronic structure calculation
              = E(kin-el) + E(nuc-el) + E(el-el) + E(nuc-nuc)
    E(ZPE)  - the the zero temperature vibrational energy from the frequency calculation
    E(vib)  - the the finite temperature correction to E(ZPE) due to population
              of excited vibrational states
    E(rot)  - is the rotational thermal energy
    E(trans)- is the translational thermal energy

Summary of contributions to the inner energy U:
Electronic energy                ...   -229.40131350 Eh
Zero point energy                ...      0.07242630 Eh      45.45 kcal/mol
Thermal vibrational correction   ...      0.00431698 Eh       2.71 kcal/mol
Thermal rotational correction    ...      0.00141627 Eh       0.89 kcal/mol
Thermal translational correction ...      0.00141627 Eh       0.89 kcal/mol
-----------------------------------------------------------------------
Total thermal energy                   -229.32173768 Eh

Summary of corrections to the electronic energy:
(perhaps to be used in another calculation)
Total thermal correction                  0.00714952 Eh       4.49 kcal/mol
Non-thermal (ZPE) correction              0.07242630 Eh      45.45 kcal/mol
-----------------------------------------------------------------------
Total correction                          0.07957582 Eh      49.93 kcal/mol

--------
ENTHALPY
--------

The enthalpy is H = U + kB*T
                kB is Boltzmann's constant
Total free energy                 ...   -229.32173768 Eh
Thermal Enthalpy correction       ...      0.00094421 Eh       0.59 kcal/mol
-----------------------------------------------------------------------
Total Enthalpy                    ...   -229.32079347 Eh

Note: Only C1 symmetry has been detected, increase convergence thresholds
      if your molecule has a higher symmetry. Symmetry factor of 1.0 is
      used for the rotational entropy correction.

Note: Rotational entropy computed according to Herzberg
Infrared and Raman Spectra, Chapter V,1, Van Nostrand Reinhold, 1945
Point Group:  C1, Symmetry Number:   1
Rotational constants in cm-1:     0.236467     0.233015     0.120063

Vibrational entropy computed according to the QRRHO of S. Grimme
Chem.Eur.J. 2012 18 9955

-------
ENTROPY
-------

The entropy contributions are T*S = T*(S(el)+S(vib)+S(rot)+S(trans))
     S(el)   - electronic entropy
     S(vib)  - vibrational entropy
     S(rot)  - rotational entropy
     S(trans)- translational entropy
The entropies will be listed as mutliplied by the temperature to get
units of energy

Electronic entropy                ...      0.00000000 Eh      0.00 kcal/mol
Vibrational entropy               ...      0.00718410 Eh      4.51 kcal/mol
Rotational entropy                ...      0.01187992 Eh      7.45 kcal/mol
Translational entropy             ...      0.01799974 Eh     11.29 kcal/mol
-----------------------------------------------------------------------
Final entropy term                ...      0.03706375 Eh     23.26 kcal/mol

In case the symmetry of your molecule has not been determined correctly
or in case you have a reason to use a different symmetry number we print
out the resulting rotational entropy values for sn=1,12 :
 --------------------------------------------------------
|  sn= 1 | S(rot)=       0.01187992 Eh      7.45 kcal/mol|
|  sn= 2 | S(rot)=       0.01122546 Eh      7.04 kcal/mol|
|  sn= 3 | S(rot)=       0.01084263 Eh      6.80 kcal/mol|
|  sn= 4 | S(rot)=       0.01057101 Eh      6.63 kcal/mol|
|  sn= 5 | S(rot)=       0.01036032 Eh      6.50 kcal/mol|
|  sn= 6 | S(rot)=       0.01018817 Eh      6.39 kcal/mol|
|  sn= 7 | S(rot)=       0.01004263 Eh      6.30 kcal/mol|
|  sn= 8 | S(rot)=       0.00991655 Eh      6.22 kcal/mol|
|  sn= 9 | S(rot)=       0.00980534 Eh      6.15 kcal/mol|
|  sn=10 | S(rot)=       0.00970586 Eh      6.09 kcal/mol|
|  sn=11 | S(rot)=       0.00961587 Eh      6.03 kcal/mol|
|  sn=12 | S(rot)=       0.00953372 Eh      5.98 kcal/mol|
 --------------------------------------------------------

-------------------
GIBBS FREE ENERGY
-------------------

The Gibbs free energy is G = H - T*S

Total enthalpy                    ...   -229.32079347 Eh
Total entropy correction          ...     -0.03706375 Eh    -23.26 kcal/mol
-----------------------------------------------------------------------
Final Gibbs free energy         ...   -229.35785722 Eh

For completeness - the Gibbs free energy minus the electronic energy
G-E(el)                           ...      0.04345628 Eh     27.27 kcal/mol

                             ****ORCA TERMINATED NORMALLY****
TOTAL RUN TIME: 0 days 0 hours 15 minutes 14 seconds 683 msec
