                         Program Version 4.2.0 -  RELEASE  -
|  1> #
|  2> # 04_H2O_4 tpssh/aug-cc-pvt(+d)z
|  3> #
|  4> ! tpssh d3bj aug-cc-pvt(+d)z def2/jk grid4 nofinalgrid opt xyzfile numfreq
|  5>
|  6> *xyz 0 1
|  7> O	1.372659		-1.372658	0.015734
|  8> H	0.406261		-1.511316	-0.008945
|  9> H	1.683553		-1.872433	0.772059
| 10> O	-1.372658		-1.372658	-0.015734
| 11> H	-1.511316		-0.406261	0.008945
| 12> H	-1.872433		-1.683553	-0.772059
| 13> O	-1.372658		1.372659	0.015734
| 14> H	-0.406261		1.511317	-0.008945
| 15> H	-1.683553		1.872433	0.772059
| 16> O	1.372659		1.372659	-0.015734
| 17> H	1.511317		0.406261	0.008945
| 18> H	1.872433		1.683553	-0.772059
| 19> *
| 20>
| 21> %maxcore 5000
| 22>
| 23> %pal
| 24> nprocs 24
| 25> end
| 26>
| 27>
| 28>                          ****END OF INPUT****
 Total Charge           Charge          ....    0
 Multiplicity           Mult            ....    1
 Number of Electrons    NEL             ....   40
Dispersion correction           -0.005417692
FINAL SINGLE POINT ENERGY      -305.880019931765
Dispersion correction            ... done
Dispersion correction           -0.005428904
FINAL SINGLE POINT ENERGY      -305.880511676206
Dispersion correction            ... done
Dispersion correction           -0.005491635
FINAL SINGLE POINT ENERGY      -305.880720597311
Dispersion correction            ... done
FINAL SINGLE POINT ENERGY      -305.880772518016
FINAL SINGLE POINT ENERGY      -305.880776742133
FINAL SINGLE POINT ENERGY      -305.880786408121
FINAL SINGLE POINT ENERGY      -305.880781913850
FINAL SINGLE POINT ENERGY      -305.880764926772
FINAL SINGLE POINT ENERGY      -305.880727132968
Dispersion correction            ... done
Dispersion correction           -0.005568948
FINAL SINGLE POINT ENERGY      -305.880658486119
Dispersion correction            ... done
Dispersion correction           -0.005569557
FINAL SINGLE POINT ENERGY      -305.880650227154
Dispersion correction            ... done
                    ***********************HURRAY********************

CARTESIAN COORDINATES (ANGSTROEM)
---------------------------------
  O      1.344704   -1.346854   -0.130927
  H      0.362805   -1.468249   -0.063634
  H      1.718036   -1.879809    0.579462
  O     -1.346854   -1.344703    0.130927
  H     -1.468248   -0.362805    0.063633
  H     -1.879809   -1.718035   -0.579462
  O     -1.344703    1.346854   -0.130927
  H     -0.362805    1.468248   -0.063633
  H     -1.718035    1.879811    0.579461
  O      1.346854    1.344703    0.130927
  H      1.468249    0.362805    0.063634
  H      1.879809    1.718035   -0.579462

 Multiplicity           Mult            ....    1
 Number of Electrons    NEL             ....   40
 Basis Dimension        Dim             ....  368

ORBITAL ENERGIES
----------------

  NO   OCC          E(Eh)            E(eV)
   0   2.0000     -19.054172      -518.4904
   1   2.0000     -19.054168      -518.4903
   2   2.0000     -19.054168      -518.4903
   3   2.0000     -19.054164      -518.4902
   4   2.0000      -1.002014       -27.2662
   5   2.0000      -0.987167       -26.8622
   6   2.0000      -0.987167       -26.8622
   7   2.0000      -0.972660       -26.4674
   8   2.0000      -0.523372       -14.2417
   9   2.0000      -0.509356       -13.8603
  10   2.0000      -0.509356       -13.8603
  11   2.0000      -0.500581       -13.6215
  12   2.0000      -0.411846       -11.2069
  13   2.0000      -0.377832       -10.2813
  14   2.0000      -0.377832       -10.2813
  15   2.0000      -0.342913        -9.3311
  16   2.0000      -0.298667        -8.1271
  17   2.0000      -0.296498        -8.0681
  18   2.0000      -0.296498        -8.0681
  19   2.0000      -0.296074        -8.0566
  20   0.0000      -0.023561        -0.6411
  21   0.0000       0.001585         0.0431
  22   0.0000       0.001585         0.0431
  23   0.0000       0.015651         0.4259
  24   0.0000       0.040334         1.0975

MULLIKEN ATOMIC CHARGES
-----------------------
   0 O :   -0.379658
   1 H :    0.268728
   2 H :    0.110931
   3 O :   -0.379659
   4 H :    0.268728
   5 H :    0.110930
   6 O :   -0.379659
   7 H :    0.268728
   8 H :    0.110931
   9 O :   -0.379658
  10 H :    0.268727
  11 H :    0.110931
Sum of atomic charges:   -0.0000000

LOEWDIN ATOMIC CHARGES
----------------------
   0 O :    1.110906
   1 H :   -0.660867
   2 H :   -0.450038
   3 O :    1.110906
   4 H :   -0.660867
   5 H :   -0.450038
   6 O :    1.110906
   7 H :   -0.660867
   8 H :   -0.450038
   9 O :    1.110906
  10 H :   -0.660867
  11 H :   -0.450038

  Mayer bond orders larger than 0.100000
B(  0-O ,  1-H ) :   0.8292 B(  0-O ,  2-H ) :   1.0761 B(  0-O , 10-H ) :   0.1068
B(  1-H ,  3-O ) :   0.1068 B(  3-O ,  4-H ) :   0.8292 B(  3-O ,  5-H ) :   1.0761
B(  4-H ,  6-O ) :   0.1068 B(  6-O ,  7-H ) :   0.8292 B(  6-O ,  8-H ) :   1.0761
B(  7-H ,  9-O ) :   0.1068 B(  9-O , 10-H ) :   0.8292 B(  9-O , 11-H ) :   1.0761

Dispersion correction           -0.005569777
FINAL SINGLE POINT ENERGY      -305.880653456071

DIPOLE MOMENT
-------------
                                X             Y             Z
Electronic contribution:     -0.00000      -0.00000       0.00000
Nuclear contribution   :      0.00000       0.00000       0.00000
                        -----------------------------------------
Total Dipole Moment    :      0.00000       0.00000       0.00000
                        -----------------------------------------
Magnitude (a.u.)       :      0.00000
Magnitude (Debye)      :      0.00000

VIBRATIONAL FREQUENCIES
-----------------------

Scaling factor for frequencies =  1.000000000 (already applied!)

   0:         0.00 cm**-1
   1:         0.00 cm**-1
   2:         0.00 cm**-1
   3:         0.00 cm**-1
   4:         0.00 cm**-1
   5:         0.00 cm**-1
   6:        51.23 cm**-1
   7:        94.33 cm**-1
   8:       224.64 cm**-1
   9:       254.73 cm**-1
  10:       267.47 cm**-1
  11:       267.49 cm**-1
  12:       283.18 cm**-1
  13:       288.04 cm**-1
  14:       288.05 cm**-1
  15:       330.47 cm**-1
  16:       441.97 cm**-1
  17:       469.75 cm**-1
  18:       490.49 cm**-1
  19:       490.49 cm**-1
  20:       810.62 cm**-1
  21:       886.67 cm**-1
  22:       886.67 cm**-1
  23:      1055.59 cm**-1
  24:      1654.05 cm**-1
  25:      1673.03 cm**-1
  26:      1673.04 cm**-1
  27:      1706.71 cm**-1
  28:      3182.36 cm**-1
  29:      3308.51 cm**-1
  30:      3308.51 cm**-1
  31:      3355.65 cm**-1
  32:      3824.92 cm**-1
  33:      3827.46 cm**-1
  34:      3827.46 cm**-1
  35:      3829.39 cm**-1

IR SPECTRUM
-----------

 Mode    freq (cm**-1)   T**2         TX         TY         TZ
-------------------------------------------------------------------
   6:        51.23    0.000001  ( -0.000025  -0.000608  -0.000561)
   7:        94.33    3.162020  (  0.000492  -0.000265  -1.778207)
   8:       224.64    0.000004  (  0.000013   0.000992   0.001801)
   9:       254.73   49.041190  (  0.001393  -0.002093   7.002941)
  10:       267.47   16.224051  ( -1.193951   3.846886   0.000550)
  11:       267.49   16.268951  ( -3.854462  -1.188307  -0.000613)
  12:       283.18    4.973081  ( -0.011048   0.006329  -2.230004)
  13:       288.04  233.828919  ( -4.230502 -14.694617  -0.001165)
  14:       288.05  233.765219  (-14.692630   4.229874   0.002712)
  15:       330.47    0.000018  (  0.004113  -0.001176  -0.000269)
  16:       441.97    0.000001  ( -0.000027  -0.000394   0.000909)
  17:       469.75    9.079993  (  0.000809  -0.000148   3.013303)
  18:       490.49   43.199404  (  1.396165   6.422626   0.000256)
  19:       490.49   43.188489  ( -6.421619   1.396888   0.000729)
  20:       810.62  174.740128  ( -0.000096   0.000993  13.218931)
  21:       886.67  142.029564  (  7.626137   9.158143  -0.001084)
  22:       886.67  142.030884  (  9.157969  -7.626434   0.001123)
  23:      1055.59    0.000000  (  0.000066  -0.000209  -0.000198)
  24:      1654.05   81.517551  ( -0.000286   0.001637   9.028707)
  25:      1673.03   51.366206  (  5.573591   4.505695  -0.001025)
  26:      1673.04   51.366552  (  4.505758  -5.573571   0.001933)
  27:      1706.71    0.000001  (  0.000181  -0.000789   0.000068)
  28:      3182.36    0.000000  (  0.000333   0.000202  -0.000000)
  29:      3308.51  1739.195241  ( 39.981720  11.859903   0.000030)
  30:      3308.51  1739.192096  ( 11.859795 -39.981713   0.000032)
  31:      3355.65    0.282031  ( -0.000232  -0.000085  -0.531066)
  32:      3824.92   49.727774  ( -0.003948  -0.003204  -7.051790)
  33:      3827.46   80.625122  ( -8.002369   4.072740   0.001769)
  34:      3827.46   80.625034  ( -4.072722  -8.002372   0.003641)
  35:      3829.39    0.000035  (  0.000210  -0.005659  -0.001806)

--------------------------
THERMOCHEMISTRY AT 298.15K
--------------------------

Temperature         ... 298.15 K
Pressure            ... 1.00 atm
Total Mass          ... 72.06 AMU

Throughout the following assumptions are being made:
  (1) The electronic state is orbitally nondegenerate
  (2) There are no thermally accessible electronically excited states
  (3) Hindered rotations indicated by low frequency modes are not
      treated as such but are treated as vibrations and this may
      cause some error
  (4) All equations used are the standard statistical mechanics
      equations for an ideal gas
  (5) All vibrations are strictly harmonic

freq.      51.23  E(vib)   ...       0.52
freq.      94.33  E(vib)   ...       0.47
freq.     224.64  E(vib)   ...       0.33
freq.     254.73  E(vib)   ...       0.30
freq.     267.47  E(vib)   ...       0.29
freq.     267.49  E(vib)   ...       0.29
freq.     283.18  E(vib)   ...       0.28
freq.     288.04  E(vib)   ...       0.27
freq.     288.05  E(vib)   ...       0.27
freq.     330.47  E(vib)   ...       0.24
freq.     441.97  E(vib)   ...       0.17
freq.     469.75  E(vib)   ...       0.16
freq.     490.49  E(vib)   ...       0.15
freq.     490.49  E(vib)   ...       0.15
freq.     810.62  E(vib)   ...       0.05
freq.     886.67  E(vib)   ...       0.04
freq.     886.67  E(vib)   ...       0.04
freq.    1055.59  E(vib)   ...       0.02
freq.    1654.05  E(vib)   ...       0.00
freq.    1673.03  E(vib)   ...       0.00
freq.    1673.04  E(vib)   ...       0.00
freq.    1706.71  E(vib)   ...       0.00
freq.    3182.36  E(vib)   ...       0.00
freq.    3308.51  E(vib)   ...       0.00
freq.    3308.51  E(vib)   ...       0.00
freq.    3355.65  E(vib)   ...       0.00
freq.    3824.92  E(vib)   ...       0.00
freq.    3827.46  E(vib)   ...       0.00
freq.    3827.46  E(vib)   ...       0.00
freq.    3829.39  E(vib)   ...       0.00

------------
INNER ENERGY
------------

The inner energy is: U= E(el) + E(ZPE) + E(vib) + E(rot) + E(trans)
    E(el)   - is the total energy from the electronic structure calculation
              = E(kin-el) + E(nuc-el) + E(el-el) + E(nuc-nuc)
    E(ZPE)  - the the zero temperature vibrational energy from the frequency calculation
    E(vib)  - the the finite temperature correction to E(ZPE) due to population
              of excited vibrational states
    E(rot)  - is the rotational thermal energy
    E(trans)- is the translational thermal energy

Summary of contributions to the inner energy U:
Electronic energy                ...   -305.88065346 Eh
Zero point energy                ...      0.09808186 Eh      61.55 kcal/mol
Thermal vibrational correction   ...      0.00641027 Eh       4.02 kcal/mol
Thermal rotational correction    ...      0.00141627 Eh       0.89 kcal/mol
Thermal translational correction ...      0.00141627 Eh       0.89 kcal/mol
-----------------------------------------------------------------------
Total thermal energy                   -305.77332878 Eh

Summary of corrections to the electronic energy:
(perhaps to be used in another calculation)
Total thermal correction                  0.00924281 Eh       5.80 kcal/mol
Non-thermal (ZPE) correction              0.09808186 Eh      61.55 kcal/mol
-----------------------------------------------------------------------
Total correction                          0.10732468 Eh      67.35 kcal/mol

--------
ENTHALPY
--------

The enthalpy is H = U + kB*T
                kB is Boltzmann's constant
Total free energy                 ...   -305.77332878 Eh
Thermal Enthalpy correction       ...      0.00094421 Eh       0.59 kcal/mol
-----------------------------------------------------------------------
Total Enthalpy                    ...   -305.77238457 Eh

Note: Only C1 symmetry has been detected, increase convergence thresholds
      if your molecule has a higher symmetry. Symmetry factor of 1.0 is
      used for the rotational entropy correction.

Note: Rotational entropy computed according to Herzberg
Infrared and Raman Spectra, Chapter V,1, Van Nostrand Reinhold, 1945
Point Group:  C1, Symmetry Number:   1
Rotational constants in cm-1:     0.123901     0.123901     0.063095

Vibrational entropy computed according to the QRRHO of S. Grimme
Chem.Eur.J. 2012 18 9955

-------
ENTROPY
-------

The entropy contributions are T*S = T*(S(el)+S(vib)+S(rot)+S(trans))
     S(el)   - electronic entropy
     S(vib)  - vibrational entropy
     S(rot)  - rotational entropy
     S(trans)- translational entropy
The entropies will be listed as mutliplied by the temperature to get
units of energy

Electronic entropy                ...      0.00000000 Eh      0.00 kcal/mol
Vibrational entropy               ...      0.01090261 Eh      6.84 kcal/mol
Rotational entropy                ...      0.01278696 Eh      8.02 kcal/mol
Translational entropy             ...      0.01840717 Eh     11.55 kcal/mol
-----------------------------------------------------------------------
Final entropy term                ...      0.04209675 Eh     26.42 kcal/mol

In case the symmetry of your molecule has not been determined correctly
or in case you have a reason to use a different symmetry number we print
out the resulting rotational entropy values for sn=1,12 :
 --------------------------------------------------------
|  sn= 1 | S(rot)=       0.01278696 Eh      8.02 kcal/mol|
|  sn= 2 | S(rot)=       0.01213250 Eh      7.61 kcal/mol|
|  sn= 3 | S(rot)=       0.01174967 Eh      7.37 kcal/mol|
|  sn= 4 | S(rot)=       0.01147805 Eh      7.20 kcal/mol|
|  sn= 5 | S(rot)=       0.01126736 Eh      7.07 kcal/mol|
|  sn= 6 | S(rot)=       0.01109522 Eh      6.96 kcal/mol|
|  sn= 7 | S(rot)=       0.01094967 Eh      6.87 kcal/mol|
|  sn= 8 | S(rot)=       0.01082359 Eh      6.79 kcal/mol|
|  sn= 9 | S(rot)=       0.01071238 Eh      6.72 kcal/mol|
|  sn=10 | S(rot)=       0.01061290 Eh      6.66 kcal/mol|
|  sn=11 | S(rot)=       0.01052291 Eh      6.60 kcal/mol|
|  sn=12 | S(rot)=       0.01044076 Eh      6.55 kcal/mol|
 --------------------------------------------------------

-------------------
GIBBS FREE ENERGY
-------------------

The Gibbs free energy is G = H - T*S

Total enthalpy                    ...   -305.77238457 Eh
Total entropy correction          ...     -0.04209675 Eh    -26.42 kcal/mol
-----------------------------------------------------------------------
Final Gibbs free energy         ...   -305.81448131 Eh

For completeness - the Gibbs free energy minus the electronic energy
G-E(el)                           ...      0.06617214 Eh     41.52 kcal/mol

                             ****ORCA TERMINATED NORMALLY****
TOTAL RUN TIME: 0 days 0 hours 37 minutes 40 seconds 98 msec
