                         Program Version 4.2.0 -  RELEASE  -
|  1> #
|  2> # 05_H2O_5 tpssh/aug-cc-pvt(+d)z
|  3> #
|  4> ! tpssh d3bj aug-cc-pvt(+d)z def2/jk grid4 nofinalgrid opt xyzfile numfreq
|  5>
|  6> *xyz 0 1
|  7> O	2.312927	0.150318	0.177415
|  8> O	0.864769	-2.137443	-0.15942
|  9> O	-1.781315	-1.498466	0.059758
| 10> O	-1.961951	1.234812	-0.062774
| 11> O	0.577396	2.241432	-0.075822
| 12> H	1.836849	-0.694236	0.04925
| 13> H	-0.089971	-1.943593	-0.076678
| 14> H	-1.915322	-0.530797	0.048103
| 15> H	-1.066728	1.628166	-0.074484
| 16> H	1.229463	1.522335	0.042111
| 17> H	2.825562	0.034681	0.978576
| 18> H	0.953988	-2.623745	-0.980296
| 19> H	-2.260123	-1.814802	0.826889
| 20> H	-2.472247	1.784461	0.533098
| 21> H	0.863928	2.71231	-0.859811
| 22> *
| 23>
| 24> %maxcore 5000
| 25>
| 26> %pal
| 27> nprocs 24
| 28> end
| 29>
| 30>
| 31>                          ****END OF INPUT****
 Total Charge           Charge          ....    0
 Multiplicity           Mult            ....    1
 Number of Electrons    NEL             ....   50
Dispersion correction           -0.006792810
FINAL SINGLE POINT ENERGY      -382.353400971799
Dispersion correction            ... done
Dispersion correction           -0.006830244
FINAL SINGLE POINT ENERGY      -382.354138734823
Dispersion correction            ... done
Dispersion correction           -0.006949225
FINAL SINGLE POINT ENERGY      -382.354411534591
Dispersion correction            ... done
FINAL SINGLE POINT ENERGY      -382.354376210349
FINAL SINGLE POINT ENERGY      -382.354312076809
FINAL SINGLE POINT ENERGY      -382.354226524226
FINAL SINGLE POINT ENERGY      -382.354143181172
FINAL SINGLE POINT ENERGY      -382.354098836173
FINAL SINGLE POINT ENERGY      -382.354103522487
FINAL SINGLE POINT ENERGY      -382.354140303568
Dispersion correction            ... done
Dispersion correction           -0.007029879
FINAL SINGLE POINT ENERGY      -382.354180517778
Dispersion correction            ... done
Dispersion correction           -0.007030738
FINAL SINGLE POINT ENERGY      -382.354207456242
Dispersion correction            ... done
                    ***********************HURRAY********************

CARTESIAN COORDINATES (ANGSTROEM)
---------------------------------
  O      2.258491    0.148714   -0.122931
  O      0.844729   -2.121466    0.062537
  O     -1.753868   -1.467080    0.002136
  O     -1.910073    1.209346   -0.226562
  O      0.550785    2.192209    0.204261
  H      1.756156   -0.708361   -0.075911
  H     -0.124811   -1.901984    0.059373
  H     -1.863103   -0.481880   -0.062802
  H     -1.008260    1.599313   -0.073129
  H      1.206138    1.449792    0.112737
  H      2.947844    0.076058    0.545712
  H      0.967865   -2.734150   -0.670400
  H     -2.269779   -1.737440    0.768782
  H     -2.502823    1.697649    0.354205
  H      0.817934    2.844712   -0.452092

 Multiplicity           Mult            ....    1
 Number of Electrons    NEL             ....   50
 Basis Dimension        Dim             ....  460

ORBITAL ENERGIES
----------------

  NO   OCC          E(Eh)            E(eV)
   0   2.0000     -19.052011      -518.4316
   1   2.0000     -19.051063      -518.4058
   2   2.0000     -19.050957      -518.4029
   3   2.0000     -19.050905      -518.4015
   4   2.0000     -19.050783      -518.3982
   5   2.0000      -0.999255       -27.1911
   6   2.0000      -0.989375       -26.9223
   7   2.0000      -0.988846       -26.9079
   8   2.0000      -0.972282       -26.4572
   9   2.0000      -0.971684       -26.4409
  10   2.0000      -0.514932       -14.0120
  11   2.0000      -0.509703       -13.8697
  12   2.0000      -0.507989       -13.8231
  13   2.0000      -0.505332       -13.7508
  14   2.0000      -0.504571       -13.7301
  15   2.0000      -0.408515       -11.1162
  16   2.0000      -0.405172       -11.0253
  17   2.0000      -0.366243        -9.9660
  18   2.0000      -0.363327        -9.8866
  19   2.0000      -0.336374        -9.1532
  20   2.0000      -0.298647        -8.1266
  21   2.0000      -0.295226        -8.0335
  22   2.0000      -0.294377        -8.0104
  23   2.0000      -0.292840        -7.9686
  24   2.0000      -0.289602        -7.8805
  25   0.0000      -0.024940        -0.6786
  26   0.0000      -0.004949        -0.1347
  27   0.0000      -0.002434        -0.0662
  28   0.0000       0.016044         0.4366
  29   0.0000       0.020653         0.5620

MULLIKEN ATOMIC CHARGES
-----------------------
   0 O :   -0.356953
   1 O :   -0.356757
   2 O :   -0.354002
   3 O :   -0.371701
   4 O :   -0.352412
   5 H :    0.249410
   6 H :    0.255776
   7 H :    0.235808
   8 H :    0.254131
   9 H :    0.250291
  10 H :    0.106213
  11 H :    0.108937
  12 H :    0.116621
  13 H :    0.108481
  14 H :    0.106157
Sum of atomic charges:   -0.0000000

LOEWDIN ATOMIC CHARGES
----------------------
   0 O :    1.117714
   1 O :    1.118255
   2 O :    1.120788
   3 O :    1.117241
   4 O :    1.116115
   5 H :   -0.672859
   6 H :   -0.673244
   7 H :   -0.667325
   8 H :   -0.672033
   9 H :   -0.672188
  10 H :   -0.446017
  11 H :   -0.444734
  12 H :   -0.447000
  13 H :   -0.448891
  14 H :   -0.445822

  Mayer bond orders larger than 0.100000
B(  0-O ,  5-H ) :   0.8464 B(  0-O ,  9-H ) :   0.1325 B(  0-O , 10-H ) :   1.0804
B(  1-O ,  5-H ) :   0.1330 B(  1-O ,  6-H ) :   0.8475 B(  1-O , 11-H ) :   1.0749
B(  2-O ,  6-H ) :   0.1220 B(  2-O ,  7-H ) :   0.8673 B(  2-O , 12-H ) :   1.0659
B(  3-O ,  7-H ) :   0.1337 B(  3-O ,  8-H ) :   0.8425 B(  3-O , 13-H ) :   1.0874
B(  4-O ,  8-H ) :   0.1332 B(  4-O ,  9-H ) :   0.8459 B(  4-O , 14-H ) :   1.0790

Dispersion correction           -0.007030918
FINAL SINGLE POINT ENERGY      -382.354216132308

DIPOLE MOMENT
-------------
                                X             Y             Z
Electronic contribution:      0.01187      -0.05650      -0.16227
Nuclear contribution   :     -0.04409       0.15004       0.55567
                        -----------------------------------------
Total Dipole Moment    :     -0.03221       0.09354       0.39341
                        -----------------------------------------
Magnitude (a.u.)       :      0.40566
Magnitude (Debye)      :      1.03110

VIBRATIONAL FREQUENCIES
-----------------------

Scaling factor for frequencies =  1.000000000 (already applied!)

   0:         0.00 cm**-1
   1:         0.00 cm**-1
   2:         0.00 cm**-1
   3:         0.00 cm**-1
   4:         0.00 cm**-1
   5:         0.00 cm**-1
   6:        12.38 cm**-1
   7:        33.47 cm**-1
   8:        74.18 cm**-1
   9:        77.22 cm**-1
  10:       196.39 cm**-1
  11:       228.61 cm**-1
  12:       249.14 cm**-1
  13:       261.15 cm**-1
  14:       262.22 cm**-1
  15:       270.79 cm**-1
  16:       304.13 cm**-1
  17:       328.76 cm**-1
  18:       332.86 cm**-1
  19:       336.28 cm**-1
  20:       457.62 cm**-1
  21:       477.65 cm**-1
  22:       490.62 cm**-1
  23:       495.04 cm**-1
  24:       565.46 cm**-1
  25:       779.45 cm**-1
  26:       866.49 cm**-1
  27:       937.09 cm**-1
  28:       949.04 cm**-1
  29:      1048.61 cm**-1
  30:      1656.47 cm**-1
  31:      1670.46 cm**-1
  32:      1681.50 cm**-1
  33:      1703.27 cm**-1
  34:      1715.36 cm**-1
  35:      3120.89 cm**-1
  36:      3236.74 cm**-1
  37:      3243.37 cm**-1
  38:      3300.96 cm**-1
  39:      3309.23 cm**-1
  40:      3826.46 cm**-1
  41:      3827.64 cm**-1
  42:      3830.05 cm**-1
  43:      3831.63 cm**-1
  44:      3834.87 cm**-1

IR SPECTRUM
-----------

 Mode    freq (cm**-1)   T**2         TX         TY         TZ
-------------------------------------------------------------------
   6:        12.38    4.345484  (  0.001436  -2.080990   0.122317)
   7:        33.47    0.125555  ( -0.304830   0.086308   0.158697)
   8:        74.18    0.090042  ( -0.070522   0.024014   0.290674)
   9:        77.22    3.761561  ( -0.071868  -0.060769  -1.937189)
  10:       196.39    0.085559  (  0.065172   0.232207  -0.165502)
  11:       228.61   54.274638  (  4.970475  -0.988874   5.347069)
  12:       249.14   59.274858  ( -1.574571   1.205478  -7.439248)
  13:       261.15   40.666245  ( -0.269504   6.185187   1.528750)
  14:       262.22   12.826418  (  3.521857  -0.641938   0.104184)
  15:       270.79  177.483796  ( 13.208870  -1.670467   0.468074)
  16:       304.13  240.421958  ( -4.588357 -14.810952   0.068089)
  17:       328.76    8.179783  ( -2.199429   1.444971   1.119979)
  18:       332.86    6.755254  ( -2.408525  -0.061253   0.974940)
  19:       336.28   43.362930  ( -6.524980   0.883752  -0.080894)
  20:       457.62   38.162387  ( -5.756393   2.216268   0.338361)
  21:       477.65    6.333239  ( -0.854645   2.255513  -0.717970)
  22:       490.62   27.961322  (  4.202630  -0.171932   3.204631)
  23:       495.04   26.208602  (  3.143616  -3.928458  -0.945250)
  24:       565.46   73.269919  (  2.719020   6.560663  -4.778551)
  25:       779.45   22.311888  ( -3.317276  -1.824441  -2.824709)
  26:       866.49  188.565823  (  0.562365   0.514092 -13.710772)
  27:       937.09   97.138670  ( -8.782607  -3.072923  -3.249867)
  28:       949.04   98.413594  ( -1.935728   9.313897  -2.813872)
  29:      1048.61    4.793245  ( -1.053474   0.977671   1.651544)
  30:      1656.47   76.780452  (  0.325930   0.490983   8.742606)
  31:      1670.46   16.925867  (  3.996640  -0.048243  -0.974888)
  32:      1681.50   73.179075  ( -0.597827   8.108539   2.659562)
  33:      1703.27   45.237078  (  6.712409  -0.166956  -0.390864)
  34:      1715.36    2.671981  ( -0.418928  -1.368228   0.790211)
  35:      3120.89   17.531539  (  0.599784  -4.143120  -0.079714)
  36:      3236.74  2686.366867  (-50.565997 -11.377448   0.022958)
  37:      3243.37  2634.870683  ( 11.694745 -49.980786  -0.156944)
  38:      3300.96    2.372948  ( -1.521866   0.224896  -0.079323)
  39:      3309.23   42.257177  ( -1.532809  -4.587912   4.342664)
  40:      3826.46   39.122551  (  1.018832  -3.416843   5.139039)
  41:      3827.64   46.910508  ( -1.091676   5.427685   4.032243)
  42:      3830.05   53.142522  ( -6.882533  -2.376611   0.353533)
  43:      3831.63   56.881378  ( -4.528531   6.022415  -0.322956)
  44:      3834.87   52.575411  (  5.027273   3.212925  -4.120565)

--------------------------
THERMOCHEMISTRY AT 298.15K
--------------------------

Temperature         ... 298.15 K
Pressure            ... 1.00 atm
Total Mass          ... 90.07 AMU

Throughout the following assumptions are being made:
  (1) The electronic state is orbitally nondegenerate
  (2) There are no thermally accessible electronically excited states
  (3) Hindered rotations indicated by low frequency modes are not
      treated as such but are treated as vibrations and this may
      cause some error
  (4) All equations used are the standard statistical mechanics
      equations for an ideal gas
  (5) All vibrations are strictly harmonic

freq.      12.38  E(vib)   ...       0.57
freq.      33.47  E(vib)   ...       0.55
freq.      74.18  E(vib)   ...       0.49
freq.      77.22  E(vib)   ...       0.49
freq.     196.39  E(vib)   ...       0.36
freq.     228.61  E(vib)   ...       0.32
freq.     249.14  E(vib)   ...       0.31
freq.     261.15  E(vib)   ...       0.30
freq.     262.22  E(vib)   ...       0.29
freq.     270.79  E(vib)   ...       0.29
freq.     304.13  E(vib)   ...       0.26
freq.     328.76  E(vib)   ...       0.24
freq.     332.86  E(vib)   ...       0.24
freq.     336.28  E(vib)   ...       0.24
freq.     457.62  E(vib)   ...       0.16
freq.     477.65  E(vib)   ...       0.15
freq.     490.62  E(vib)   ...       0.15
freq.     495.04  E(vib)   ...       0.14
freq.     565.46  E(vib)   ...       0.11
freq.     779.45  E(vib)   ...       0.05
freq.     866.49  E(vib)   ...       0.04
freq.     937.09  E(vib)   ...       0.03
freq.     949.04  E(vib)   ...       0.03
freq.    1048.61  E(vib)   ...       0.02
freq.    1656.47  E(vib)   ...       0.00
freq.    1670.46  E(vib)   ...       0.00
freq.    1681.50  E(vib)   ...       0.00
freq.    1703.27  E(vib)   ...       0.00
freq.    1715.36  E(vib)   ...       0.00
freq.    3120.89  E(vib)   ...       0.00
freq.    3236.74  E(vib)   ...       0.00
freq.    3243.37  E(vib)   ...       0.00
freq.    3300.96  E(vib)   ...       0.00
freq.    3309.23  E(vib)   ...       0.00
freq.    3826.46  E(vib)   ...       0.00
freq.    3827.64  E(vib)   ...       0.00
freq.    3830.05  E(vib)   ...       0.00
freq.    3831.63  E(vib)   ...       0.00
freq.    3834.87  E(vib)   ...       0.00

------------
INNER ENERGY
------------

The inner energy is: U= E(el) + E(ZPE) + E(vib) + E(rot) + E(trans)
    E(el)   - is the total energy from the electronic structure calculation
              = E(kin-el) + E(nuc-el) + E(el-el) + E(nuc-nuc)
    E(ZPE)  - the the zero temperature vibrational energy from the frequency calculation
    E(vib)  - the the finite temperature correction to E(ZPE) due to population
              of excited vibrational states
    E(rot)  - is the rotational thermal energy
    E(trans)- is the translational thermal energy

Summary of contributions to the inner energy U:
Electronic energy                ...   -382.35421613 Eh
Zero point energy                ...      0.12261908 Eh      76.94 kcal/mol
Thermal vibrational correction   ...      0.00929561 Eh       5.83 kcal/mol
Thermal rotational correction    ...      0.00141627 Eh       0.89 kcal/mol
Thermal translational correction ...      0.00141627 Eh       0.89 kcal/mol
-----------------------------------------------------------------------
Total thermal energy                   -382.21946889 Eh

Summary of corrections to the electronic energy:
(perhaps to be used in another calculation)
Total thermal correction                  0.01212816 Eh       7.61 kcal/mol
Non-thermal (ZPE) correction              0.12261908 Eh      76.94 kcal/mol
-----------------------------------------------------------------------
Total correction                          0.13474724 Eh      84.55 kcal/mol

--------
ENTHALPY
--------

The enthalpy is H = U + kB*T
                kB is Boltzmann's constant
Total free energy                 ...   -382.21946889 Eh
Thermal Enthalpy correction       ...      0.00094421 Eh       0.59 kcal/mol
-----------------------------------------------------------------------
Total Enthalpy                    ...   -382.21852468 Eh

Note: Only C1 symmetry has been detected, increase convergence thresholds
      if your molecule has a higher symmetry. Symmetry factor of 1.0 is
      used for the rotational entropy correction.

Note: Rotational entropy computed according to Herzberg
Infrared and Raman Spectra, Chapter V,1, Van Nostrand Reinhold, 1945
Point Group:  C1, Symmetry Number:   1
Rotational constants in cm-1:     0.070257     0.069868     0.035541

Vibrational entropy computed according to the QRRHO of S. Grimme
Chem.Eur.J. 2012 18 9955

-------
ENTROPY
-------

The entropy contributions are T*S = T*(S(el)+S(vib)+S(rot)+S(trans))
     S(el)   - electronic entropy
     S(vib)  - vibrational entropy
     S(rot)  - rotational entropy
     S(trans)- translational entropy
The entropies will be listed as mutliplied by the temperature to get
units of energy

Electronic entropy                ...      0.00000000 Eh      0.00 kcal/mol
Vibrational entropy               ...      0.01688355 Eh     10.59 kcal/mol
Rotational entropy                ...      0.01359619 Eh      8.53 kcal/mol
Translational entropy             ...      0.01872320 Eh     11.75 kcal/mol
-----------------------------------------------------------------------
Final entropy term                ...      0.04920294 Eh     30.88 kcal/mol

In case the symmetry of your molecule has not been determined correctly
or in case you have a reason to use a different symmetry number we print
out the resulting rotational entropy values for sn=1,12 :
 --------------------------------------------------------
|  sn= 1 | S(rot)=       0.01359619 Eh      8.53 kcal/mol|
|  sn= 2 | S(rot)=       0.01294174 Eh      8.12 kcal/mol|
|  sn= 3 | S(rot)=       0.01255890 Eh      7.88 kcal/mol|
|  sn= 4 | S(rot)=       0.01228728 Eh      7.71 kcal/mol|
|  sn= 5 | S(rot)=       0.01207659 Eh      7.58 kcal/mol|
|  sn= 6 | S(rot)=       0.01190445 Eh      7.47 kcal/mol|
|  sn= 7 | S(rot)=       0.01175890 Eh      7.38 kcal/mol|
|  sn= 8 | S(rot)=       0.01163282 Eh      7.30 kcal/mol|
|  sn= 9 | S(rot)=       0.01152161 Eh      7.23 kcal/mol|
|  sn=10 | S(rot)=       0.01142214 Eh      7.17 kcal/mol|
|  sn=11 | S(rot)=       0.01133215 Eh      7.11 kcal/mol|
|  sn=12 | S(rot)=       0.01124999 Eh      7.06 kcal/mol|
 --------------------------------------------------------

-------------------
GIBBS FREE ENERGY
-------------------

The Gibbs free energy is G = H - T*S

Total enthalpy                    ...   -382.21852468 Eh
Total entropy correction          ...     -0.04920294 Eh    -30.88 kcal/mol
-----------------------------------------------------------------------

                             ****ORCA TERMINATED NORMALLY****
TOTAL RUN TIME: 0 days 1 hours 3 minutes 21 seconds 549 msec
