                         Program Version 4.2.0 -  RELEASE  -
|  1> #
|  2> # 06_H2O_6_ring tpssh/aug-cc-pvt(+d)z
|  3> #
|  4> ! tpssh d3bj aug-cc-pvt(+d)z def2/jk grid4 nofinalgrid opt xyzfile numfreq
|  5>
|  6> *xyz 0 1
|  7> O	0	2.709181	0.148099
|  8> H	-0.122498	3.233153	0.940879
|  9> H	-0.836919	2.216592	0.034772
| 10> O	-2.346219	-1.35459	0.148099
| 11> H	-1.501165	-1.833089	0.034772
| 12> H	-2.738743	-1.722662	0.940879
| 13> O	2.34622	1.354591	-0.148098
| 14> H	2.738743	1.722663	-0.940878
| 15> H	1.501165	1.83309	-0.034772
| 16> O	0	-2.709181	-0.148098
| 17> H	0.83692	-2.216591	-0.034772
| 18> H	0.122498	-3.233152	-0.940878
| 19> O	2.34622	-1.35459	0.148099
| 20> H	2.861241	-1.510489	0.940879
| 21> H	2.338085	-0.383502	0.034772
| 22> O	-2.346219	1.354591	-0.148098
| 23> H	-2.861241	1.51049	-0.940878
| 24> H	-2.338084	0.383502	-0.034772
| 25> *
| 26>
| 27> %maxcore 5000
| 28>
| 29> %pal
| 30> nprocs 24
| 31> end
| 32>
| 33>
| 34>                          ****END OF INPUT****
 Total Charge           Charge          ....    0
 Multiplicity           Mult            ....    1
 Number of Electrons    NEL             ....   60
Dispersion correction           -0.007957935
FINAL SINGLE POINT ENERGY      -458.825954731240
Dispersion correction            ... done
Dispersion correction           -0.008009790
FINAL SINGLE POINT ENERGY      -458.826858960572
Dispersion correction            ... done
Dispersion correction           -0.008154692
FINAL SINGLE POINT ENERGY      -458.827246364441
Dispersion correction            ... done
FINAL SINGLE POINT ENERGY      -458.827268268670
FINAL SINGLE POINT ENERGY      -458.827258102714
FINAL SINGLE POINT ENERGY      -458.827232882131
FINAL SINGLE POINT ENERGY      -458.827185328330
FINAL SINGLE POINT ENERGY      -458.827082483377
FINAL SINGLE POINT ENERGY      -458.827054254802
Dispersion correction            ... done
Dispersion correction           -0.008211677
FINAL SINGLE POINT ENERGY      -458.827025292354
Dispersion correction            ... done
Dispersion correction           -0.008210585
FINAL SINGLE POINT ENERGY      -458.827012766722
Dispersion correction            ... done
                    ***********************HURRAY********************

CARTESIAN COORDINATES (ANGSTROEM)
---------------------------------
  O     -0.009267    2.672263   -0.021304
  H     -0.091585    3.288339    0.714481
  H     -0.854389    2.148467   -0.016383
  O     -2.309705   -1.339961   -0.021584
  H     -1.432166   -1.807350   -0.016387
  H     -2.801408   -1.721585    0.713467
  O      2.309705    1.339962    0.021587
  H      2.801409    1.721586   -0.713463
  H      1.432166    1.807351    0.016388
  O      0.009267   -2.672261    0.021303
  H      0.854389   -2.148466    0.016382
  H      0.091585   -3.288338   -0.714481
  O      2.324741   -1.333980   -0.021355
  H      2.898524   -1.568516    0.715852
  H      2.288527   -0.340399   -0.015712
  O     -2.324740    1.333980    0.021355
  H     -2.898523    1.568516   -0.715852
  H     -2.288526    0.340399    0.015713

 Multiplicity           Mult            ....    1
 Number of Electrons    NEL             ....   60
 Basis Dimension        Dim             ....  552

ORBITAL ENERGIES
----------------

  NO   OCC          E(Eh)            E(eV)
   0   2.0000     -19.049651      -518.3673
   1   2.0000     -19.049650      -518.3673
   2   2.0000     -19.049615      -518.3664
   3   2.0000     -19.049615      -518.3664
   4   2.0000     -19.049606      -518.3661
   5   2.0000     -19.049606      -518.3661
   6   2.0000      -0.997779       -27.1509
   7   2.0000      -0.990601       -26.9556
   8   2.0000      -0.990570       -26.9548
   9   2.0000      -0.975366       -26.5411
  10   2.0000      -0.975335       -26.5402
  11   2.0000      -0.967209       -26.3191
  12   2.0000      -0.509608       -13.8671
  13   2.0000      -0.506992       -13.7960
  14   2.0000      -0.506793       -13.7905
  15   2.0000      -0.506645       -13.7865
  16   2.0000      -0.505692       -13.7606
  17   2.0000      -0.505539       -13.7564
  18   2.0000      -0.416577       -11.3356
  19   2.0000      -0.397758       -10.8235
  20   2.0000      -0.397645       -10.8205
  21   2.0000      -0.353600        -9.6219
  22   2.0000      -0.353521        -9.6198
  23   2.0000      -0.329626        -8.9696
  24   2.0000      -0.294635        -8.0174
  25   2.0000      -0.294610        -8.0168
  26   2.0000      -0.294315        -8.0087
  27   2.0000      -0.293207        -7.9786
  28   2.0000      -0.293160        -7.9773
  29   2.0000      -0.289982        -7.8908
  30   0.0000      -0.024607        -0.6696
  31   0.0000      -0.005819        -0.1584
  32   0.0000      -0.005794        -0.1577
  33   0.0000       0.016091         0.4379
  34   0.0000       0.016133         0.4390

MULLIKEN ATOMIC CHARGES
-----------------------
   0 O :   -0.349463
   1 H :    0.108454
   2 H :    0.241345
   3 O :   -0.350133
   4 H :    0.241759
   5 H :    0.108488
   6 O :   -0.350134
   7 H :    0.108488
   8 H :    0.241759
   9 O :   -0.349464
  10 H :    0.241345
  11 H :    0.108455
  12 O :   -0.351760
  13 H :    0.109364
  14 H :    0.241946
  15 O :   -0.351761
  16 H :    0.109364
  17 H :    0.241947
Sum of atomic charges:    0.0000000

LOEWDIN ATOMIC CHARGES
----------------------
   0 O :    1.121127
   1 H :   -0.443369
   2 H :   -0.677709
   3 O :    1.121274
   4 H :   -0.677659
   5 H :   -0.443288
   6 O :    1.121274
   7 H :   -0.443288
   8 H :   -0.677659
   9 O :    1.121128
  10 H :   -0.677708
  11 H :   -0.443369
  12 O :    1.121023
  13 H :   -0.443392
  14 H :   -0.678008
  15 O :    1.121023
  16 H :   -0.443392
  17 H :   -0.678008

  Mayer bond orders larger than 0.100000
B(  0-O ,  1-H ) :   1.0798 B(  0-O ,  2-H ) :   0.8628 B(  0-O ,  8-H ) :   0.1379
B(  2-H , 15-O ) :   0.1381 B(  3-O ,  4-H ) :   0.8620 B(  3-O ,  5-H ) :   1.0796
B(  3-O , 17-H ) :   0.1385 B(  4-H ,  9-O ) :   0.1380 B(  6-O ,  7-H ) :   1.0796
B(  6-O ,  8-H ) :   0.8620 B(  6-O , 14-H ) :   0.1385 B(  9-O , 10-H ) :   0.8628
B(  9-O , 11-H ) :   1.0798 B( 10-H , 12-O ) :   0.1381 B( 12-O , 13-H ) :   1.0789
B( 12-O , 14-H ) :   0.8615 B( 15-O , 16-H ) :   1.0789 B( 15-O , 17-H ) :   0.8615

Dispersion correction           -0.008210986
FINAL SINGLE POINT ENERGY      -458.827012589148

DIPOLE MOMENT
-------------
                                X             Y             Z
Electronic contribution:     -0.00000      -0.00000      -0.00000
Nuclear contribution   :      0.00000      -0.00000       0.00000
                        -----------------------------------------
Total Dipole Moment    :      0.00000      -0.00000       0.00000
                        -----------------------------------------
Magnitude (a.u.)       :      0.00000
Magnitude (Debye)      :      0.00000

VIBRATIONAL FREQUENCIES
-----------------------

Scaling factor for frequencies =  1.000000000 (already applied!)

   0:         0.00 cm**-1
   1:         0.00 cm**-1
   2:         0.00 cm**-1
   3:         0.00 cm**-1
   4:         0.00 cm**-1
   5:         0.00 cm**-1
   6:        12.34 cm**-1
   7:        27.11 cm**-1
   8:        41.65 cm**-1
   9:        52.89 cm**-1
  10:        54.48 cm**-1
  11:        97.02 cm**-1
  12:       168.22 cm**-1
  13:       212.26 cm**-1
  14:       236.14 cm**-1
  15:       236.47 cm**-1
  16:       238.10 cm**-1
  17:       240.12 cm**-1
  18:       304.03 cm**-1
  19:       306.18 cm**-1
  20:       330.93 cm**-1
  21:       331.51 cm**-1
  22:       342.29 cm**-1
  23:       367.64 cm**-1
  24:       471.10 cm**-1
  25:       479.45 cm**-1
  26:       493.93 cm**-1
  27:       498.25 cm**-1
  28:       503.49 cm**-1
  29:       511.31 cm**-1
  30:       854.00 cm**-1
  31:       873.02 cm**-1
  32:       873.98 cm**-1
  33:       974.46 cm**-1
  34:       975.62 cm**-1
  35:      1054.15 cm**-1
  36:      1650.45 cm**-1
  37:      1664.85 cm**-1
  38:      1666.11 cm**-1
  39:      1700.63 cm**-1
  40:      1700.98 cm**-1
  41:      1722.70 cm**-1
  42:      3114.90 cm**-1
  43:      3217.77 cm**-1
  44:      3218.23 cm**-1
  45:      3289.20 cm**-1
  46:      3289.58 cm**-1
  47:      3308.05 cm**-1
  48:      3826.44 cm**-1
  49:      3827.38 cm**-1
  50:      3827.78 cm**-1
  51:      3829.39 cm**-1
  52:      3830.24 cm**-1
  53:      3831.08 cm**-1

IR SPECTRUM
-----------

 Mode    freq (cm**-1)   T**2         TX         TY         TZ
-------------------------------------------------------------------
   6:        12.34    1.186234  (  0.830962   0.678038  -0.189739)
   7:        27.11    0.857529  ( -0.548202   0.740779  -0.090835)
   8:        41.65    0.000000  ( -0.000139   0.000366  -0.000133)
   9:        52.89    0.000002  (  0.000133  -0.000316   0.001231)
  10:        54.48    0.000001  ( -0.000540  -0.000225  -0.000535)
  11:        97.02   10.503373  (  0.100052   0.031198  -3.239196)
  12:       168.22    0.000004  ( -0.000503  -0.000561   0.001958)
  13:       212.26   72.688283  (  0.169379  -0.350290   8.516859)
  14:       236.14   39.687119  ( -6.203598   1.093944   0.076031)
  15:       236.47   37.292435  ( -1.953392  -5.785502   0.068268)
  16:       238.10    0.000072  ( -0.007930   0.001597  -0.002529)
  17:       240.12    0.000028  (  0.005274   0.000120  -0.000647)
  18:       304.03  335.768449  ( 14.676892 -10.969584  -0.159700)
  19:       306.18  331.674608  ( 10.899238  14.589196   0.191239)
  20:       330.93    0.000006  (  0.000180   0.002364  -0.000320)
  21:       331.51    0.000002  ( -0.000533   0.001131  -0.000135)
  22:       342.29    0.000015  ( -0.003621   0.000767   0.001184)
  23:       367.64    0.147122  (  0.061022   0.310147   0.217271)
  24:       471.10    0.000008  (  0.002168   0.000970  -0.001674)
  25:       479.45   18.823852  ( -0.211183  -1.700514  -3.985913)
  26:       493.93   51.788155  (  7.193065  -0.215070  -0.041468)
  27:       498.25   42.972699  (  0.290369   6.517973  -0.635932)
  28:       503.49    0.000012  (  0.003328  -0.000163  -0.000761)
  29:       511.31    0.000011  (  0.001190  -0.003075  -0.000412)
  30:       854.00  251.607775  ( -0.052687   0.084551  15.861836)
  31:       873.02    0.000079  (  0.000740  -0.000031  -0.008860)
  32:       873.98    0.000005  ( -0.000254  -0.000016   0.002122)
  33:       974.46   95.260484  ( -5.778980  -7.865329  -0.021655)
  34:       975.62   92.478493  (  7.831293  -5.581157   0.004936)
  35:      1054.15    0.000001  (  0.000864   0.000113  -0.000037)
  36:      1650.45  101.990496  (  0.058283   0.234812 -10.096136)
  37:      1664.85    0.000000  (  0.000012  -0.000069   0.000414)
  38:      1666.11    0.000001  ( -0.000263  -0.000475   0.001033)
  39:      1700.63   85.177307  ( -8.767874   2.876534  -0.165044)
  40:      1700.98   75.614997  (  2.956501   8.174404   0.230697)
  41:      1722.70    0.000001  (  0.000415   0.000805   0.000100)
  42:      3114.90    0.000001  ( -0.000228   0.001167  -0.000045)
  43:      3217.77  3525.730461  ( 26.818927  52.976179   0.008476)
  44:      3218.23  3544.412195  ( 53.087774 -26.946233   0.030667)
  45:      3289.20    0.000006  ( -0.002387  -0.000196   0.000053)
  46:      3289.58    0.000002  ( -0.000120   0.001546  -0.000063)
  47:      3308.05   35.103297  (  0.056755   0.022981  -5.924487)
  48:      3826.44   92.243531  ( -0.714407   0.845707   9.540332)
  49:      3827.38    0.000022  (  0.002084   0.002371   0.003473)
  50:      3827.78    0.000047  ( -0.000779   0.006796  -0.000009)
  51:      3829.39  101.337977  (  8.011566   6.095045   0.056649)
  52:      3830.24   98.290270  (  5.976270  -7.856335   0.923291)
  53:      3831.08    0.000028  ( -0.000741   0.003501  -0.003876)

--------------------------
THERMOCHEMISTRY AT 298.15K
--------------------------

Temperature         ... 298.15 K
Pressure            ... 1.00 atm
Total Mass          ... 108.09 AMU

Throughout the following assumptions are being made:
  (1) The electronic state is orbitally nondegenerate
  (2) There are no thermally accessible electronically excited states
  (3) Hindered rotations indicated by low frequency modes are not
      treated as such but are treated as vibrations and this may
      cause some error
  (4) All equations used are the standard statistical mechanics
      equations for an ideal gas
  (5) All vibrations are strictly harmonic

freq.      12.34  E(vib)   ...       0.58
freq.      27.11  E(vib)   ...       0.55
freq.      41.65  E(vib)   ...       0.53
freq.      52.89  E(vib)   ...       0.52
freq.      54.48  E(vib)   ...       0.52
freq.      97.02  E(vib)   ...       0.46
freq.     168.22  E(vib)   ...       0.38
freq.     212.26  E(vib)   ...       0.34
freq.     236.14  E(vib)   ...       0.32
freq.     236.47  E(vib)   ...       0.32
freq.     238.10  E(vib)   ...       0.32
freq.     240.12  E(vib)   ...       0.31
freq.     304.03  E(vib)   ...       0.26
freq.     306.18  E(vib)   ...       0.26
freq.     330.93  E(vib)   ...       0.24
freq.     331.51  E(vib)   ...       0.24
freq.     342.29  E(vib)   ...       0.23
freq.     367.64  E(vib)   ...       0.21
freq.     471.10  E(vib)   ...       0.15
freq.     479.45  E(vib)   ...       0.15
freq.     493.93  E(vib)   ...       0.14
freq.     498.25  E(vib)   ...       0.14
freq.     503.49  E(vib)   ...       0.14
freq.     511.31  E(vib)   ...       0.14
freq.     854.00  E(vib)   ...       0.04
freq.     873.02  E(vib)   ...       0.04
freq.     873.98  E(vib)   ...       0.04
freq.     974.46  E(vib)   ...       0.03
freq.     975.62  E(vib)   ...       0.03
freq.    1054.15  E(vib)   ...       0.02
freq.    1650.45  E(vib)   ...       0.00
freq.    1664.85  E(vib)   ...       0.00
freq.    1666.11  E(vib)   ...       0.00
freq.    1700.63  E(vib)   ...       0.00
freq.    1700.98  E(vib)   ...       0.00
freq.    1722.70  E(vib)   ...       0.00
freq.    3114.90  E(vib)   ...       0.00
freq.    3217.77  E(vib)   ...       0.00
freq.    3218.23  E(vib)   ...       0.00
freq.    3289.20  E(vib)   ...       0.00
freq.    3289.58  E(vib)   ...       0.00
freq.    3308.05  E(vib)   ...       0.00
freq.    3826.44  E(vib)   ...       0.00
freq.    3827.38  E(vib)   ...       0.00
freq.    3827.78  E(vib)   ...       0.00
freq.    3829.39  E(vib)   ...       0.00
freq.    3830.24  E(vib)   ...       0.00
freq.    3831.08  E(vib)   ...       0.00

------------
INNER ENERGY
------------

The inner energy is: U= E(el) + E(ZPE) + E(vib) + E(rot) + E(trans)
    E(el)   - is the total energy from the electronic structure calculation
              = E(kin-el) + E(nuc-el) + E(el-el) + E(nuc-nuc)
    E(ZPE)  - the the zero temperature vibrational energy from the frequency calculation
    E(vib)  - the the finite temperature correction to E(ZPE) due to population
              of excited vibrational states
    E(rot)  - is the rotational thermal energy
    E(trans)- is the translational thermal energy

Summary of contributions to the inner energy U:
Electronic energy                ...   -458.82701259 Eh
Zero point energy                ...      0.14734707 Eh      92.46 kcal/mol
Thermal vibrational correction   ...      0.01220831 Eh       7.66 kcal/mol
Thermal rotational correction    ...      0.00141627 Eh       0.89 kcal/mol
Thermal translational correction ...      0.00141627 Eh       0.89 kcal/mol
-----------------------------------------------------------------------
Total thermal energy                   -458.66462466 Eh

Summary of corrections to the electronic energy:
(perhaps to be used in another calculation)
Total thermal correction                  0.01504085 Eh       9.44 kcal/mol
Non-thermal (ZPE) correction              0.14734707 Eh      92.46 kcal/mol
-----------------------------------------------------------------------
Total correction                          0.16238793 Eh     101.90 kcal/mol

--------
ENTHALPY
--------

The enthalpy is H = U + kB*T
                kB is Boltzmann's constant
Total free energy                 ...   -458.66462466 Eh
Thermal Enthalpy correction       ...      0.00094421 Eh       0.59 kcal/mol
-----------------------------------------------------------------------
Total Enthalpy                    ...   -458.66368045 Eh

Error (ORCA_SYM): TSymmetryOperation::SetReflection called with NULL axis!
If your molecule is not C1 symmetric, check warnings below carefully ...
Error (ORCA_SYM): TSymmetryOperation::SetReflection called with NULL axis!
If your molecule is not C1 symmetric, check warnings below carefully ...

Note: Only C1 symmetry has been detected, increase convergence thresholds
      if your molecule has a higher symmetry. Symmetry factor of 1.0 is
      used for the rotational entropy correction.

Note: Rotational entropy computed according to Herzberg
Infrared and Raman Spectra, Chapter V,1, Van Nostrand Reinhold, 1945
Point Group:  C1, Symmetry Number:   1
Rotational constants in cm-1:     0.042772     0.042520     0.021493

Vibrational entropy computed according to the QRRHO of S. Grimme
Chem.Eur.J. 2012 18 9955

-------
ENTROPY
-------

The entropy contributions are T*S = T*(S(el)+S(vib)+S(rot)+S(trans))
     S(el)   - electronic entropy
     S(vib)  - vibrational entropy
     S(rot)  - rotational entropy
     S(trans)- translational entropy
The entropies will be listed as mutliplied by the temperature to get
units of energy

Electronic entropy                ...      0.00000000 Eh      0.00 kcal/mol
Vibrational entropy               ...      0.02252478 Eh     14.13 kcal/mol
Rotational entropy                ...      0.01430237 Eh      8.97 kcal/mol
Translational entropy             ...      0.01898142 Eh     11.91 kcal/mol
-----------------------------------------------------------------------
Final entropy term                ...      0.05580857 Eh     35.02 kcal/mol

In case the symmetry of your molecule has not been determined correctly
or in case you have a reason to use a different symmetry number we print
out the resulting rotational entropy values for sn=1,12 :
 --------------------------------------------------------
|  sn= 1 | S(rot)=       0.01430237 Eh      8.97 kcal/mol|
|  sn= 2 | S(rot)=       0.01364792 Eh      8.56 kcal/mol|
|  sn= 3 | S(rot)=       0.01326508 Eh      8.32 kcal/mol|
|  sn= 4 | S(rot)=       0.01299346 Eh      8.15 kcal/mol|
|  sn= 5 | S(rot)=       0.01278277 Eh      8.02 kcal/mol|
|  sn= 6 | S(rot)=       0.01261063 Eh      7.91 kcal/mol|
|  sn= 7 | S(rot)=       0.01246508 Eh      7.82 kcal/mol|
|  sn= 8 | S(rot)=       0.01233900 Eh      7.74 kcal/mol|
|  sn= 9 | S(rot)=       0.01222780 Eh      7.67 kcal/mol|
|  sn=10 | S(rot)=       0.01212832 Eh      7.61 kcal/mol|
|  sn=11 | S(rot)=       0.01203833 Eh      7.55 kcal/mol|

                             ****ORCA TERMINATED NORMALLY****
TOTAL RUN TIME: 0 days 2 hours 1 minutes 45 seconds 536 msec
