                         Program Version 4.2.0 -  RELEASE  -
|  1> #
|  2> # 07_H2O_6_book tpssh/aug-cc-pvt(+d)z
|  3> #
|  4> ! tpssh d3bj aug-cc-pvt(+d)z def2/jk grid4 nofinalgrid opt xyzfile numfreq
|  5>
|  6> *xyz 0 1
|  7> O	0.116757	1.553296	0.874144
|  8> H	0.955357	1.526953	0.36374
|  9> H	0.278593	2.140101	1.61497
| 10> O	-0.028991	-1.36957	0.910464
| 11> H	-0.055528	-0.424567	1.109294
| 12> H	-0.872074	-1.539194	0.457007
| 13> O	-2.340721	1.363977	-0.433023
| 14> H	-1.482171	1.543988	-0.013805
| 15> H	-2.349173	1.886417	-1.236377
| 16> O	-2.490803	-1.41279	-0.437012
| 17> H	-2.562332	-0.444637	-0.504051
| 18> H	-3.290032	-1.695404	0.010212
| 19> O	2.424786	1.214249	-0.477895
| 20> H	2.508896	0.237506	-0.500154
| 21> H	2.55493	1.502809	-1.382466
| 22> O	2.31194	-1.486888	-0.434852
| 23> H	1.449966	-1.577886	0.025804
| 24> H	2.919833	-2.054267	0.041233
| 25> *
| 26>
| 27> %maxcore 5000
| 28>
| 29> %pal
| 30> nprocs 24
| 31> end
| 32>
| 33>
| 34>                          ****END OF INPUT****
 Total Charge           Charge          ....    0
 Multiplicity           Mult            ....    1
 Number of Electrons    NEL             ....   60
Dispersion correction           -0.009536845
FINAL SINGLE POINT ENERGY      -458.826964621854
Dispersion correction            ... done
Dispersion correction           -0.009568066
FINAL SINGLE POINT ENERGY      -458.827717080413
Dispersion correction            ... done
Dispersion correction           -0.009702289
FINAL SINGLE POINT ENERGY      -458.828038409669
Dispersion correction            ... done
FINAL SINGLE POINT ENERGY      -458.828114152744
FINAL SINGLE POINT ENERGY      -458.828127131244
FINAL SINGLE POINT ENERGY      -458.828153114496
FINAL SINGLE POINT ENERGY      -458.828167708627
FINAL SINGLE POINT ENERGY      -458.828183659450
FINAL SINGLE POINT ENERGY      -458.828188678231
FINAL SINGLE POINT ENERGY      -458.828187240202
FINAL SINGLE POINT ENERGY      -458.828216325390
FINAL SINGLE POINT ENERGY      -458.828225480055
FINAL SINGLE POINT ENERGY      -458.828229460745
FINAL SINGLE POINT ENERGY      -458.828231262717
FINAL SINGLE POINT ENERGY      -458.828233403538
FINAL SINGLE POINT ENERGY      -458.828235017644
FINAL SINGLE POINT ENERGY      -458.828237226919
Dispersion correction            ... done
Dispersion correction           -0.009852287
FINAL SINGLE POINT ENERGY      -458.828239289298
Dispersion correction            ... done
Dispersion correction           -0.009855036
FINAL SINGLE POINT ENERGY      -458.828241072102
Dispersion correction            ... done
                    ***********************HURRAY********************

CARTESIAN COORDINATES (ANGSTROEM)
---------------------------------
  O      0.101921    1.537537    0.840452
  H      0.974151    1.498329    0.352375
  H      0.226153    2.163681    1.561550
  O     -0.016493   -1.371728    1.006203
  H     -0.033810   -0.416144    1.192260
  H     -0.849710   -1.521941    0.502015
  O     -2.309992    1.340572   -0.446937
  H     -1.438682    1.523015   -0.025966
  H     -2.288222    1.787154   -1.299867
  O     -2.365677   -1.393785   -0.436472
  H     -2.447204   -0.412403   -0.500438
  H     -3.157030   -1.685928    0.028456
  O      2.421935    1.190091   -0.388740
  H      2.432620    0.194617   -0.473179
  H      2.540798    1.525559   -1.283652
  O      2.147559   -1.445719   -0.537838
  H      1.317428   -1.525626    0.014489
  H      2.793490   -2.023188   -0.117477

 Multiplicity           Mult            ....    1
 Number of Electrons    NEL             ....   60
 Basis Dimension        Dim             ....  552

ORBITAL ENERGIES
----------------

  NO   OCC          E(Eh)            E(eV)
   0   2.0000     -19.069998      -518.9210
   1   2.0000     -19.060296      -518.6570
   2   2.0000     -19.058526      -518.6088
   3   2.0000     -19.047911      -518.3200
   4   2.0000     -19.047838      -518.3180
   5   2.0000     -19.036243      -518.0025
   6   2.0000      -1.009900       -27.4808
   7   2.0000      -0.996584       -27.1184
   8   2.0000      -0.990807       -26.9612
   9   2.0000      -0.982609       -26.7381
  10   2.0000      -0.977464       -26.5981
  11   2.0000      -0.962735       -26.1974
  12   2.0000      -0.530786       -14.4434
  13   2.0000      -0.521051       -14.1785
  14   2.0000      -0.515299       -14.0220
  15   2.0000      -0.505567       -13.7572
  16   2.0000      -0.501103       -13.6357
  17   2.0000      -0.488723       -13.2988
  18   2.0000      -0.422273       -11.4906
  19   2.0000      -0.396219       -10.7817
  20   2.0000      -0.384939       -10.4747
  21   2.0000      -0.371926       -10.1206
  22   2.0000      -0.359252        -9.7757
  23   2.0000      -0.338480        -9.2105
  24   2.0000      -0.313018        -8.5177
  25   2.0000      -0.302967        -8.2442
  26   2.0000      -0.301556        -8.2057
  27   2.0000      -0.292723        -7.9654
  28   2.0000      -0.288016        -7.8373
  29   2.0000      -0.280562        -7.6345
  30   0.0000      -0.029594        -0.8053
  31   0.0000      -0.006093        -0.1658
  32   0.0000      -0.000119        -0.0032
  33   0.0000       0.002855         0.0777
  34   0.0000       0.015030         0.4090

MULLIKEN ATOMIC CHARGES
-----------------------
   0 O :   -0.516477
   1 H :    0.296996
   2 H :    0.112875
   3 O :   -0.518453
   4 H :    0.323970
   5 H :    0.256521
   6 O :   -0.403392
   7 H :    0.308184
   8 H :    0.121480
   9 O :   -0.403135
  10 H :    0.288272
  11 H :    0.114852
  12 O :   -0.346340
  13 H :    0.265562
  14 H :    0.096365
  15 O :   -0.359991
  16 H :    0.269910
  17 H :    0.092802
Sum of atomic charges:    0.0000000

LOEWDIN ATOMIC CHARGES
----------------------
   0 O :    1.139851
   1 H :   -0.660112
   2 H :   -0.422947
   3 O :    1.133859
   4 H :   -0.568111
   5 H :   -0.630043
   6 O :    1.115010
   7 H :   -0.653833
   8 H :   -0.451658
   9 O :    1.104985
  10 H :   -0.661389
  11 H :   -0.457366
  12 O :    1.120949
  13 H :   -0.669405
  14 H :   -0.442615
  15 O :    1.115936
  16 H :   -0.667538
  17 H :   -0.445573

  Mayer bond orders larger than 0.100000
B(  0-O ,  1-H ) :   0.7432 B(  0-O ,  2-H ) :   1.0569 B(  1-H , 12-O ) :   0.1681
B(  3-O ,  4-H ) :   0.8080 B(  3-O ,  5-H ) :   0.8931 B(  3-O , 16-H ) :   0.1342
B(  6-O ,  7-H ) :   0.8146 B(  6-O ,  8-H ) :   1.0725 B(  9-O , 10-H ) :   0.8336
B(  9-O , 11-H ) :   1.0791 B( 12-O , 13-H ) :   0.8025 B( 12-O , 14-H ) :   1.0790
B( 13-H , 15-O ) :   0.1415 B( 15-O , 16-H ) :   0.7843 B( 15-O , 17-H ) :   1.1046

Dispersion correction           -0.009856719
FINAL SINGLE POINT ENERGY      -458.828242360912

DIPOLE MOMENT
-------------
                                X             Y             Z
Electronic contribution:     -0.00200      -0.22409       0.01282
Nuclear contribution   :      0.09279       1.15963      -0.10219
                        -----------------------------------------
Total Dipole Moment    :      0.09079       0.93554      -0.08937
                        -----------------------------------------
Magnitude (a.u.)       :      0.94418
Magnitude (Debye)      :      2.39991

VIBRATIONAL FREQUENCIES
-----------------------

Scaling factor for frequencies =  1.000000000 (already applied!)

   0:         0.00 cm**-1
   1:         0.00 cm**-1
   2:         0.00 cm**-1
   3:         0.00 cm**-1
   4:         0.00 cm**-1
   5:         0.00 cm**-1
   6:        26.72 cm**-1
   7:        43.69 cm**-1
   8:        58.43 cm**-1
   9:        76.64 cm**-1
  10:        99.10 cm**-1
  11:       144.76 cm**-1
  12:       195.77 cm**-1
  13:       216.92 cm**-1
  14:       227.13 cm**-1
  15:       251.37 cm**-1
  16:       272.95 cm**-1
  17:       278.87 cm**-1
  18:       286.60 cm**-1
  19:       301.64 cm**-1
  20:       319.54 cm**-1
  21:       327.56 cm**-1
  22:       342.76 cm**-1
  23:       422.24 cm**-1
  24:       444.84 cm**-1
  25:       480.93 cm**-1
  26:       497.52 cm**-1
  27:       525.94 cm**-1
  28:       580.23 cm**-1
  29:       648.76 cm**-1
  30:       780.34 cm**-1
  31:       823.80 cm**-1
  32:       903.89 cm**-1
  33:       926.52 cm**-1
  34:       974.32 cm**-1
  35:      1093.57 cm**-1
  36:      1649.57 cm**-1
  37:      1662.86 cm**-1
  38:      1668.47 cm**-1
  39:      1685.45 cm**-1
  40:      1700.49 cm**-1
  41:      1727.58 cm**-1
  42:      3042.41 cm**-1
  43:      3152.59 cm**-1
  44:      3211.93 cm**-1
  45:      3344.18 cm**-1
  46:      3427.72 cm**-1
  47:      3438.13 cm**-1
  48:      3631.34 cm**-1
  49:      3827.89 cm**-1
  50:      3829.41 cm**-1
  51:      3830.22 cm**-1
  52:      3830.88 cm**-1
  53:      3834.12 cm**-1

IR SPECTRUM
-----------

 Mode    freq (cm**-1)   T**2         TX         TY         TZ
-------------------------------------------------------------------
   6:        26.72    0.761549  (  0.856422   0.089314  -0.141822)
   7:        43.69    0.555430  ( -0.235746  -0.145735   0.691820)
   8:        58.43    2.273523  (  0.837092  -0.032458   1.253693)
   9:        76.64    1.191250  (  0.868027  -0.531584  -0.393953)
  10:        99.10    6.550441  (  0.332207   1.227446   2.221138)
  11:       144.76    0.312590  (  0.305967  -0.463953   0.061006)
  12:       195.77    6.294359  ( -0.852937  -2.249694  -0.711150)
  13:       216.92   47.905979  (  6.144957   3.185191  -0.006405)
  14:       227.13   59.220586  (  3.306790  -5.972683  -3.551449)
  15:       251.37   60.945824  (  2.703851  -7.314877  -0.357183)
  16:       272.95   76.950149  ( -2.025729  -8.139385  -2.568459)
  17:       278.87   10.317440  ( -0.778150  -3.080347  -0.472636)
  18:       286.60  129.498336  ( -9.615919  -4.227377  -4.377410)
  19:       301.64  102.996748  (  8.618017  -4.738716   2.504216)
  20:       319.54   12.736199  (  0.668082  -2.027167  -2.860150)
  21:       327.56   49.202102  ( -3.137439   6.220307   0.816305)
  22:       342.76   80.180069  ( -5.293666  -0.695353   7.188439)
  23:       422.24   29.008920  (  4.165958   2.299519   2.523078)
  24:       444.84   49.900349  ( -1.438808   4.720416  -5.054489)
  25:       480.93   53.734242  ( -4.977125  -3.206253   4.322316)
  26:       497.52    8.845446  (  0.973631  -2.755461   0.552197)
  27:       525.94   29.401428  (  4.269933  -2.158856  -2.551165)
  28:       580.23    6.270160  (  1.532668   1.871648  -0.646548)
  29:       648.76   70.771680  (  0.981999   4.045496  -7.310357)
  30:       780.34  160.819809  ( -3.152242  10.327429   6.650367)
  31:       823.80  148.896407  ( -2.814290  -6.659344   9.830021)
  32:       903.89  213.646882  ( 13.185954   1.540497   6.115912)
  33:       926.52   25.937752  ( -2.988661  -1.053671  -3.986908)
  34:       974.32   93.787216  (  2.293582  -8.790777  -3.353942)
  35:      1093.57   19.447208  (  2.677705   0.884504  -3.390392)
  36:      1649.57   66.187823  (  6.936726   3.921210   1.641271)
  37:      1662.86   82.114685  (  4.061771  -0.959445  -8.043393)
  38:      1668.47   81.490285  ( -3.253864   7.842461  -3.065692)
  39:      1685.45    6.032383  ( -2.222255  -1.019191   0.234978)
  40:      1700.49   39.730688  ( -5.126840   3.541508  -0.950746)
  41:      1727.58   19.591939  ( -3.484231   2.163947  -1.664154)
  42:      3042.41  358.482837  (  0.122899 -18.925797  -0.530967)
  43:      3152.59  2643.982615  ( 47.181515  -3.231003 -20.185339)
  44:      3211.93  714.891388  ( -0.676450  26.711230  -0.971592)
  45:      3344.18  417.064877  (  1.664123  20.295583  -1.544310)
  46:      3427.72  1142.461126  ( 27.568727   3.514474  19.237331)
  47:      3438.13  257.068153  (  0.945178 -15.591734   3.615607)
  48:      3631.34  383.178279  ( -5.357083 -18.474006  -3.631948)
  49:      3827.89   74.877850  ( -1.490278   3.452970  -7.793197)
  50:      3829.41   67.703192  (  5.448357  -3.183100  -5.280765)
  51:      3830.22   25.191294  ( -0.550012   4.647670  -1.813269)
  52:      3830.88   55.715400  (  4.314970   6.065913  -0.548760)
  53:      3834.12   43.088964  (  4.801687  -1.865303   4.068589)

--------------------------
THERMOCHEMISTRY AT 298.15K
--------------------------

Temperature         ... 298.15 K
Pressure            ... 1.00 atm
Total Mass          ... 108.09 AMU

Throughout the following assumptions are being made:
  (1) The electronic state is orbitally nondegenerate
  (2) There are no thermally accessible electronically excited states
  (3) Hindered rotations indicated by low frequency modes are not
      treated as such but are treated as vibrations and this may
      cause some error
  (4) All equations used are the standard statistical mechanics
      equations for an ideal gas
  (5) All vibrations are strictly harmonic

freq.      26.72  E(vib)   ...       0.56
freq.      43.69  E(vib)   ...       0.53
freq.      58.43  E(vib)   ...       0.51
freq.      76.64  E(vib)   ...       0.49
freq.      99.10  E(vib)   ...       0.46
freq.     144.76  E(vib)   ...       0.41
freq.     195.77  E(vib)   ...       0.36
freq.     216.92  E(vib)   ...       0.34
freq.     227.13  E(vib)   ...       0.33
freq.     251.37  E(vib)   ...       0.30
freq.     272.95  E(vib)   ...       0.29
freq.     278.87  E(vib)   ...       0.28
freq.     286.60  E(vib)   ...       0.27
freq.     301.64  E(vib)   ...       0.26
freq.     319.54  E(vib)   ...       0.25
freq.     327.56  E(vib)   ...       0.24
freq.     342.76  E(vib)   ...       0.23
freq.     422.24  E(vib)   ...       0.18
freq.     444.84  E(vib)   ...       0.17
freq.     480.93  E(vib)   ...       0.15
freq.     497.52  E(vib)   ...       0.14
freq.     525.94  E(vib)   ...       0.13
freq.     580.23  E(vib)   ...       0.11
freq.     648.76  E(vib)   ...       0.08
freq.     780.34  E(vib)   ...       0.05
freq.     823.80  E(vib)   ...       0.05
freq.     903.89  E(vib)   ...       0.03
freq.     926.52  E(vib)   ...       0.03
freq.     974.32  E(vib)   ...       0.03
freq.    1093.57  E(vib)   ...       0.02
freq.    1649.57  E(vib)   ...       0.00
freq.    1662.86  E(vib)   ...       0.00
freq.    1668.47  E(vib)   ...       0.00
freq.    1685.45  E(vib)   ...       0.00
freq.    1700.49  E(vib)   ...       0.00
freq.    1727.58  E(vib)   ...       0.00
freq.    3042.41  E(vib)   ...       0.00
freq.    3152.59  E(vib)   ...       0.00
freq.    3211.93  E(vib)   ...       0.00
freq.    3344.18  E(vib)   ...       0.00
freq.    3427.72  E(vib)   ...       0.00
freq.    3438.13  E(vib)   ...       0.00
freq.    3631.34  E(vib)   ...       0.00
freq.    3827.89  E(vib)   ...       0.00
freq.    3829.41  E(vib)   ...       0.00
freq.    3830.22  E(vib)   ...       0.00
freq.    3830.88  E(vib)   ...       0.00
freq.    3834.12  E(vib)   ...       0.00

------------
INNER ENERGY
------------

The inner energy is: U= E(el) + E(ZPE) + E(vib) + E(rot) + E(trans)
    E(el)   - is the total energy from the electronic structure calculation
              = E(kin-el) + E(nuc-el) + E(el-el) + E(nuc-nuc)
    E(ZPE)  - the the zero temperature vibrational energy from the frequency calculation
    E(vib)  - the the finite temperature correction to E(ZPE) due to population
              of excited vibrational states
    E(rot)  - is the rotational thermal energy
    E(trans)- is the translational thermal energy

Summary of contributions to the inner energy U:
Electronic energy                ...   -458.82824236 Eh
Zero point energy                ...      0.14823714 Eh      93.02 kcal/mol
Thermal vibrational correction   ...      0.01160701 Eh       7.28 kcal/mol
Thermal rotational correction    ...      0.00141627 Eh       0.89 kcal/mol
Thermal translational correction ...      0.00141627 Eh       0.89 kcal/mol
-----------------------------------------------------------------------
Total thermal energy                   -458.66556567 Eh

Summary of corrections to the electronic energy:
(perhaps to be used in another calculation)
Total thermal correction                  0.01443955 Eh       9.06 kcal/mol
Non-thermal (ZPE) correction              0.14823714 Eh      93.02 kcal/mol
-----------------------------------------------------------------------
Total correction                          0.16267669 Eh     102.08 kcal/mol

--------
ENTHALPY
--------

The enthalpy is H = U + kB*T
                kB is Boltzmann's constant
Total free energy                 ...   -458.66556567 Eh
Thermal Enthalpy correction       ...      0.00094421 Eh       0.59 kcal/mol
-----------------------------------------------------------------------
Total Enthalpy                    ...   -458.66462146 Eh

Note: Only C1 symmetry has been detected, increase convergence thresholds
      if your molecule has a higher symmetry. Symmetry factor of 1.0 is
      used for the rotational entropy correction.

Note: Rotational entropy computed according to Herzberg
Infrared and Raman Spectra, Chapter V,1, Van Nostrand Reinhold, 1945
Point Group:  C1, Symmetry Number:   1
Rotational constants in cm-1:     0.064921     0.038409     0.028058

Vibrational entropy computed according to the QRRHO of S. Grimme
Chem.Eur.J. 2012 18 9955

-------
ENTROPY
-------

The entropy contributions are T*S = T*(S(el)+S(vib)+S(rot)+S(trans))
     S(el)   - electronic entropy
     S(vib)  - vibrational entropy
     S(rot)  - rotational entropy
     S(trans)- translational entropy
The entropies will be listed as mutliplied by the temperature to get
units of energy

Electronic entropy                ...      0.00000000 Eh      0.00 kcal/mol
Vibrational entropy               ...      0.02073410 Eh     13.01 kcal/mol
Rotational entropy                ...      0.01402755 Eh      8.80 kcal/mol
Translational entropy             ...      0.01898142 Eh     11.91 kcal/mol
-----------------------------------------------------------------------
Final entropy term                ...      0.05374307 Eh     33.72 kcal/mol

In case the symmetry of your molecule has not been determined correctly
or in case you have a reason to use a different symmetry number we print
out the resulting rotational entropy values for sn=1,12 :
 --------------------------------------------------------
|  sn= 1 | S(rot)=       0.01402755 Eh      8.80 kcal/mol|
|  sn= 2 | S(rot)=       0.01337309 Eh      8.39 kcal/mol|
|  sn= 3 | S(rot)=       0.01299026 Eh      8.15 kcal/mol|
|  sn= 4 | S(rot)=       0.01271864 Eh      7.98 kcal/mol|
|  sn= 5 | S(rot)=       0.01250795 Eh      7.85 kcal/mol|
|  sn= 6 | S(rot)=       0.01233580 Eh      7.74 kcal/mol|
|  sn= 7 | S(rot)=       0.01219026 Eh      7.65 kcal/mol|
|  sn= 8 | S(rot)=       0.01206418 Eh      7.57 kcal/mol|
|  sn= 9 | S(rot)=       0.01195297 Eh      7.50 kcal/mol|
|  sn=10 | S(rot)=       0.01185349 Eh      7.44 kcal/mol|
|  sn=11 | S(rot)=       0.01176350 Eh      7.38 kcal/mol|
|  sn=12 | S(rot)=       0.01168135 Eh      7.33 kcal/mol|
 --------------------------------------------------------

                             ****ORCA TERMINATED NORMALLY****
TOTAL RUN TIME: 0 days 2 hours 47 minutes 51 seconds 138 msec
