                         Program Version 4.2.0 -  RELEASE  -
|  1> #
|  2> # 08_H2O_6_cage tpssh/aug-cc-pvt(+d)z
|  3> #
|  4> ! tpssh d3bj aug-cc-pvt(+d)z def2/jk grid4 nofinalgrid opt xyzfile numfreq
|  5>
|  6> *xyz 0 1
|  7> O	0.862065	-1.728538	-0.448765
|  8> H	1.679686	-1.216793	-0.290371
|  9> H	1.141594	-2.607406	-0.70991
| 10> O	-0.751083	0.359939	-1.648316
| 11> H	-0.283702	-0.473988	-1.502279
| 12> H	-1.624922	0.21572	-1.247934
| 13> O	0.590537	1.75631	0.198185
| 14> H	0.069166	1.374794	-0.548651
| 15> H	0.493944	2.707937	0.134574
| 16> O	-0.675492	-0.446436	1.665684
| 17> H	-0.188802	-1.063799	1.102054
| 18> H	-0.260662	0.405216	1.474464
| 19> O	2.803582	0.112403	0.084677
| 20> H	2.165098	0.844551	0.158067
| 21> H	3.282044	0.106258	0.915526
| 22> O	-2.901034	0.010949	0.089937
| 23> H	-2.258917	-0.224605	0.785219
| 24> H	-3.643112	-0.584893	0.198028
| 25> *
| 26>
| 27> %maxcore 5000
| 28>
| 29> %pal
| 30> nprocs 24
| 31> end
| 32>
| 33>
| 34>                          ****END OF INPUT****
 Total Charge           Charge          ....    0
 Multiplicity           Mult            ....    1
 Number of Electrons    NEL             ....   60
Dispersion correction           -0.011154842
FINAL SINGLE POINT ENERGY      -458.826552707614
Dispersion correction            ... done
Dispersion correction           -0.011133741
FINAL SINGLE POINT ENERGY      -458.827156070329
Dispersion correction            ... done
Dispersion correction           -0.011223030
FINAL SINGLE POINT ENERGY      -458.827367923724
Dispersion correction            ... done
FINAL SINGLE POINT ENERGY      -458.827483339956
FINAL SINGLE POINT ENERGY      -458.827496187569
FINAL SINGLE POINT ENERGY      -458.827521699496
FINAL SINGLE POINT ENERGY      -458.827535463761
FINAL SINGLE POINT ENERGY      -458.827548418768
FINAL SINGLE POINT ENERGY      -458.827550048200
FINAL SINGLE POINT ENERGY      -458.827538932525
FINAL SINGLE POINT ENERGY      -458.827516527711
FINAL SINGLE POINT ENERGY      -458.827517169475
FINAL SINGLE POINT ENERGY      -458.827517542648
FINAL SINGLE POINT ENERGY      -458.827516747045
FINAL SINGLE POINT ENERGY      -458.827513181661
FINAL SINGLE POINT ENERGY      -458.827509272738
FINAL SINGLE POINT ENERGY      -458.827507288953
Dispersion correction            ... done
Dispersion correction           -0.011334950
FINAL SINGLE POINT ENERGY      -458.827507937306
Dispersion correction            ... done
Dispersion correction           -0.011336586
FINAL SINGLE POINT ENERGY      -458.827510804090
Dispersion correction            ... done
                    ***********************HURRAY********************

CARTESIAN COORDINATES (ANGSTROEM)
---------------------------------
  O      0.828115   -1.685483   -0.330948
  H      1.657940   -1.144961   -0.264154
  H      1.105285   -2.584841   -0.533968
  O     -0.709609    0.404271   -1.615338
  H     -0.250777   -0.443838   -1.478225
  H     -1.593668    0.259982   -1.205879
  O      0.607743    1.682858    0.281725
  H      0.079122    1.311374   -0.490708
  H      0.527288    2.641116    0.231396
  O     -0.782731   -0.469735    1.718640
  H     -0.261400   -1.070810    1.152881
  H     -0.349293    0.389257    1.574925
  O      2.796305    0.135675   -0.118744
  H      2.138551    0.854625    0.045988
  H      3.364748    0.122048    0.658830
  O     -2.868916    0.031138    0.031571
  H     -2.242672   -0.232531    0.750585
  H     -3.546040   -0.652525    0.001612

 Multiplicity           Mult            ....    1
 Number of Electrons    NEL             ....   60
 Basis Dimension        Dim             ....  552

ORBITAL ENERGIES
----------------

  NO   OCC          E(Eh)            E(eV)
   0   2.0000     -19.068798      -518.8884
   1   2.0000     -19.065713      -518.8044
   2   2.0000     -19.065311      -518.7935
   3   2.0000     -19.048411      -518.3336
   4   2.0000     -19.047029      -518.2960
   5   2.0000     -19.043897      -518.2108
   6   2.0000      -1.012072       -27.5399
   7   2.0000      -0.999235       -27.1906
   8   2.0000      -0.994580       -27.0639
   9   2.0000      -0.986091       -26.8329
  10   2.0000      -0.978615       -26.6295
  11   2.0000      -0.968599       -26.3569
  12   2.0000      -0.538453       -14.6520
  13   2.0000      -0.523013       -14.2319
  14   2.0000      -0.513143       -13.9633
  15   2.0000      -0.510504       -13.8915
  16   2.0000      -0.496756       -13.5174
  17   2.0000      -0.492289       -13.3959
  18   2.0000      -0.422601       -11.4996
  19   2.0000      -0.393843       -10.7170
  20   2.0000      -0.387603       -10.5472
  21   2.0000      -0.370971       -10.0946
  22   2.0000      -0.369271       -10.0484
  23   2.0000      -0.346222        -9.4212
  24   2.0000      -0.313012        -8.5175
  25   2.0000      -0.310661        -8.4535
  26   2.0000      -0.306501        -8.3403
  27   2.0000      -0.294538        -8.0148
  28   2.0000      -0.286831        -7.8051
  29   2.0000      -0.285381        -7.7656
  30   0.0000      -0.030064        -0.8181
  31   0.0000      -0.007037        -0.1915
  32   0.0000      -0.004800        -0.1306
  33   0.0000       0.009378         0.2552
  34   0.0000       0.023614         0.6426

MULLIKEN ATOMIC CHARGES
-----------------------
   0 O :   -0.512337
   1 H :    0.337011
   2 H :    0.067464
   3 O :   -0.466215
   4 H :    0.260145
   5 H :    0.272159
   6 O :   -0.437226
   7 H :    0.363486
   8 H :    0.050802
   9 O :   -0.564452
  10 H :    0.358694
  11 H :    0.274214
  12 O :   -0.376890
  13 H :    0.288002
  14 H :    0.107056
  15 O :   -0.432888
  16 H :    0.279046
  17 H :    0.131930
Sum of atomic charges:   -0.0000000

LOEWDIN ATOMIC CHARGES
----------------------
   0 O :    1.120803
   1 H :   -0.650893
   2 H :   -0.441814
   3 O :    1.135776
   4 H :   -0.558787
   5 H :   -0.625280
   6 O :    1.124640
   7 H :   -0.657779
   8 H :   -0.430043
   9 O :    1.116700
  10 H :   -0.596315
  11 H :   -0.554816
  12 O :    1.117016
  13 H :   -0.643834
  14 H :   -0.447229
  15 O :    1.102312
  16 H :   -0.649890
  17 H :   -0.460568

  Mayer bond orders larger than 0.100000
B(  0-O ,  1-H ) :   0.7425 B(  0-O ,  2-H ) :   1.0735 B(  3-O ,  4-H ) :   0.8791
B(  3-O ,  5-H ) :   0.8621 B(  3-O ,  7-H ) :   0.1171 B(  6-O ,  7-H ) :   0.6677
B(  6-O ,  8-H ) :   1.0970 B(  9-O , 10-H ) :   0.7683 B(  9-O , 11-H ) :   0.8629
B( 12-O , 13-H ) :   0.8077 B( 12-O , 14-H ) :   1.0841 B( 15-O , 16-H ) :   0.8240
B( 15-O , 17-H ) :   1.0688

Dispersion correction           -0.011336681
FINAL SINGLE POINT ENERGY      -458.827513631178

DIPOLE MOMENT
-------------
                                X             Y             Z
Electronic contribution:     -0.09077       0.19094      -0.13532
Nuclear contribution   :      0.73853      -0.62306       0.42406
                        -----------------------------------------
Total Dipole Moment    :      0.64776      -0.43212       0.28874
                        -----------------------------------------
Magnitude (a.u.)       :      0.83048
Magnitude (Debye)      :      2.11091

VIBRATIONAL FREQUENCIES
-----------------------

Scaling factor for frequencies =  1.000000000 (already applied!)

   0:         0.00 cm**-1
   1:         0.00 cm**-1
   2:         0.00 cm**-1
   3:         0.00 cm**-1
   4:         0.00 cm**-1
   5:         0.00 cm**-1
   6:        52.36 cm**-1
   7:        61.21 cm**-1
   8:        82.92 cm**-1
   9:       104.72 cm**-1
  10:       112.61 cm**-1
  11:       135.90 cm**-1
  12:       187.03 cm**-1
  13:       224.74 cm**-1
  14:       242.62 cm**-1
  15:       245.17 cm**-1
  16:       251.70 cm**-1
  17:       256.68 cm**-1
  18:       266.79 cm**-1
  19:       293.61 cm**-1
  20:       310.73 cm**-1
  21:       329.28 cm**-1
  22:       418.00 cm**-1
  23:       440.14 cm**-1
  24:       467.97 cm**-1
  25:       489.04 cm**-1
  26:       512.62 cm**-1
  27:       564.81 cm**-1
  28:       612.52 cm**-1
  29:       670.36 cm**-1
  30:       727.69 cm**-1
  31:       785.42 cm**-1
  32:       858.72 cm**-1
  33:       861.70 cm**-1
  34:       925.51 cm**-1
  35:      1072.72 cm**-1
  36:      1659.62 cm**-1
  37:      1669.85 cm**-1
  38:      1682.65 cm**-1
  39:      1694.14 cm**-1
  40:      1704.18 cm**-1
  41:      1720.21 cm**-1
  42:      2997.44 cm**-1
  43:      3251.97 cm**-1
  44:      3314.73 cm**-1
  45:      3370.00 cm**-1
  46:      3432.33 cm**-1
  47:      3577.98 cm**-1
  48:      3631.85 cm**-1
  49:      3664.99 cm**-1
  50:      3828.08 cm**-1
  51:      3831.14 cm**-1
  52:      3835.35 cm**-1
  53:      3836.02 cm**-1

IR SPECTRUM
-----------

 Mode    freq (cm**-1)   T**2         TX         TY         TZ
-------------------------------------------------------------------
   6:        52.36    1.608294  (  1.236082   0.087187  -0.269804)
   7:        61.21    3.971229  ( -1.669751   0.890966   0.623971)
   8:        82.92    0.505901  (  0.319863   0.306548  -0.556433)
   9:       104.72    0.388285  ( -0.008533   0.574005   0.242345)
  10:       112.61    2.431051  ( -1.136303   0.057826   1.066078)
  11:       135.90    1.928023  (  1.228200   0.377808  -0.526125)
  12:       187.03   10.317183  (  3.015852  -0.597481   0.929967)
  13:       224.74   13.416788  ( -2.774935  -1.960874  -1.368026)
  14:       242.62   32.741196  (  3.292316  -1.963677  -4.248037)
  15:       245.17    8.238787  (  2.041448   1.994555   0.305003)
  16:       251.70   32.928553  (  1.491583   1.605639  -5.303363)
  17:       256.68   83.938673  (  7.987272  -4.437608  -0.670662)
  18:       266.79   28.304604  (  5.109685   1.228502   0.828555)
  19:       293.61   84.529114  (  8.420809   3.384684  -1.470713)
  20:       310.73   30.545033  (  3.337018   2.793289   3.406886)
  21:       329.28   50.639851  (  2.615662  -1.452175  -6.456729)
  22:       418.00   50.091314  ( -4.328433  -0.570827  -5.570470)
  23:       440.14   81.765317  ( -7.792365   3.977263   2.285987)
  24:       467.97   23.052987  ( -4.541687  -1.211965  -0.978369)
  25:       489.04   81.000318  (  2.053827  -1.113011   8.691566)
  26:       512.62   32.567539  (  0.896636  -4.554158   3.320125)
  27:       564.81  224.803362  (  6.345765  12.401504   5.544125)
  28:       612.52   77.206940  (  8.519959  -2.063937  -0.597833)
  29:       670.36  167.109100  (  5.310410  -5.265780  10.544202)
  30:       727.69    7.702396  ( -1.682767   1.418257  -1.690928)
  31:       785.42  199.473287  (  6.434992   4.646014  11.682411)
  32:       858.72   83.007976  (  2.345872  -4.120690   7.779767)
  33:       861.70  190.036300  ( 11.018169   1.323416  -8.178313)
  34:       925.51   40.511596  ( -4.939033   0.288843   4.004262)
  35:      1072.72   60.071888  ( -4.096864  -0.605297   6.551428)
  36:      1659.62   80.459766  ( -3.640376  -0.606306   8.175562)
  37:      1669.85   75.137909  (  4.370267   7.117305  -2.320054)
  38:      1682.65   64.306750  (  5.575351  -5.601979   1.356479)
  39:      1694.14   50.595957  ( -1.672550  -6.772345   1.390638)
  40:      1704.18   46.724849  ( -5.821153  -0.522356   3.544880)
  41:      1720.21   35.155265  (  2.803008   1.378784  -5.039580)
  42:      2997.44  903.680075  (-19.563373 -13.734737 -18.229413)
  43:      3251.97  893.373885  ( 16.922586  24.001064   5.563174)
  44:      3314.73  697.583246  ( 18.804171  -3.242387  18.261252)
  45:      3370.00  738.205536  ( 25.441630  -8.927670  -3.350480)
  46:      3432.33  646.243967  ( 23.755291   1.557748  -8.916475)
  47:      3577.98  238.450624  (  5.726406  -4.674135 -13.557705)
  48:      3631.85  327.199070  (-14.660969  10.581551  -0.534631)
  49:      3664.99  342.643040  (  0.651846  18.496766  -0.296294)
  50:      3828.08   54.497760  ( -5.441099   4.226236  -2.651627)
  51:      3831.14   56.332745  ( -3.742621  -5.643455  -3.236812)
  52:      3835.35   47.794799  ( -0.002760   6.891206   0.553242)
  53:      3836.02   53.083147  (  6.044674   3.224899   2.478928)

--------------------------
THERMOCHEMISTRY AT 298.15K
--------------------------

Temperature         ... 298.15 K
Pressure            ... 1.00 atm
Total Mass          ... 108.09 AMU

Throughout the following assumptions are being made:
  (1) The electronic state is orbitally nondegenerate
  (2) There are no thermally accessible electronically excited states
  (3) Hindered rotations indicated by low frequency modes are not
      treated as such but are treated as vibrations and this may
      cause some error
  (4) All equations used are the standard statistical mechanics
      equations for an ideal gas
  (5) All vibrations are strictly harmonic

freq.      52.36  E(vib)   ...       0.52
freq.      61.21  E(vib)   ...       0.51
freq.      82.92  E(vib)   ...       0.48
freq.     104.72  E(vib)   ...       0.46
freq.     112.61  E(vib)   ...       0.45
freq.     135.90  E(vib)   ...       0.42
freq.     187.03  E(vib)   ...       0.36
freq.     224.74  E(vib)   ...       0.33
freq.     242.62  E(vib)   ...       0.31
freq.     245.17  E(vib)   ...       0.31
freq.     251.70  E(vib)   ...       0.30
freq.     256.68  E(vib)   ...       0.30
freq.     266.79  E(vib)   ...       0.29
freq.     293.61  E(vib)   ...       0.27
freq.     310.73  E(vib)   ...       0.26
freq.     329.28  E(vib)   ...       0.24
freq.     418.00  E(vib)   ...       0.18
freq.     440.14  E(vib)   ...       0.17
freq.     467.97  E(vib)   ...       0.16
freq.     489.04  E(vib)   ...       0.15
freq.     512.62  E(vib)   ...       0.13
freq.     564.81  E(vib)   ...       0.11
freq.     612.52  E(vib)   ...       0.10
freq.     670.36  E(vib)   ...       0.08
freq.     727.69  E(vib)   ...       0.06
freq.     785.42  E(vib)   ...       0.05
freq.     858.72  E(vib)   ...       0.04
freq.     861.70  E(vib)   ...       0.04
freq.     925.51  E(vib)   ...       0.03
freq.    1072.72  E(vib)   ...       0.02
freq.    1659.62  E(vib)   ...       0.00
freq.    1669.85  E(vib)   ...       0.00
freq.    1682.65  E(vib)   ...       0.00
freq.    1694.14  E(vib)   ...       0.00
freq.    1704.18  E(vib)   ...       0.00
freq.    1720.21  E(vib)   ...       0.00
freq.    2997.44  E(vib)   ...       0.00
freq.    3251.97  E(vib)   ...       0.00
freq.    3314.73  E(vib)   ...       0.00
freq.    3370.00  E(vib)   ...       0.00
freq.    3432.33  E(vib)   ...       0.00
freq.    3577.98  E(vib)   ...       0.00
freq.    3631.85  E(vib)   ...       0.00
freq.    3664.99  E(vib)   ...       0.00
freq.    3828.08  E(vib)   ...       0.00
freq.    3831.14  E(vib)   ...       0.00
freq.    3835.35  E(vib)   ...       0.00
freq.    3836.02  E(vib)   ...       0.00

------------
INNER ENERGY
------------

The inner energy is: U= E(el) + E(ZPE) + E(vib) + E(rot) + E(trans)
    E(el)   - is the total energy from the electronic structure calculation
              = E(kin-el) + E(nuc-el) + E(el-el) + E(nuc-nuc)
    E(ZPE)  - the the zero temperature vibrational energy from the frequency calculation
    E(vib)  - the the finite temperature correction to E(ZPE) due to population
              of excited vibrational states
    E(rot)  - is the rotational thermal energy
    E(trans)- is the translational thermal energy

Summary of contributions to the inner energy U:
Electronic energy                ...   -458.82751363 Eh
Zero point energy                ...      0.14869101 Eh      93.30 kcal/mol
Thermal vibrational correction   ...      0.01137334 Eh       7.14 kcal/mol
Thermal rotational correction    ...      0.00141627 Eh       0.89 kcal/mol
Thermal translational correction ...      0.00141627 Eh       0.89 kcal/mol
-----------------------------------------------------------------------
Total thermal energy                   -458.66461673 Eh

Summary of corrections to the electronic energy:
(perhaps to be used in another calculation)
Total thermal correction                  0.01420589 Eh       8.91 kcal/mol
Non-thermal (ZPE) correction              0.14869101 Eh      93.30 kcal/mol
-----------------------------------------------------------------------
Total correction                          0.16289690 Eh     102.22 kcal/mol

--------
ENTHALPY
--------

The enthalpy is H = U + kB*T
                kB is Boltzmann's constant
Total free energy                 ...   -458.66461673 Eh
Thermal Enthalpy correction       ...      0.00094421 Eh       0.59 kcal/mol
-----------------------------------------------------------------------
Total Enthalpy                    ...   -458.66367252 Eh

Note: Only C1 symmetry has been detected, increase convergence thresholds
      if your molecule has a higher symmetry. Symmetry factor of 1.0 is
      used for the rotational entropy correction.

Note: Rotational entropy computed according to Herzberg
Infrared and Raman Spectra, Chapter V,1, Van Nostrand Reinhold, 1945
Point Group:  C1, Symmetry Number:   1
Rotational constants in cm-1:     0.077405     0.039022     0.037336

Vibrational entropy computed according to the QRRHO of S. Grimme
Chem.Eur.J. 2012 18 9955

-------
ENTROPY
-------

The entropy contributions are T*S = T*(S(el)+S(vib)+S(rot)+S(trans))
     S(el)   - electronic entropy
     S(vib)  - vibrational entropy
     S(rot)  - rotational entropy
     S(trans)- translational entropy
The entropies will be listed as mutliplied by the temperature to get
units of energy

Electronic entropy                ...      0.00000000 Eh      0.00 kcal/mol
Vibrational entropy               ...      0.02008809 Eh     12.61 kcal/mol
Rotational entropy                ...      0.01380217 Eh      8.66 kcal/mol
Translational entropy             ...      0.01898142 Eh     11.91 kcal/mol
-----------------------------------------------------------------------
Final entropy term                ...      0.05287168 Eh     33.18 kcal/mol

In case the symmetry of your molecule has not been determined correctly
or in case you have a reason to use a different symmetry number we print
out the resulting rotational entropy values for sn=1,12 :
 --------------------------------------------------------
|  sn= 1 | S(rot)=       0.01380217 Eh      8.66 kcal/mol|
|  sn= 2 | S(rot)=       0.01314771 Eh      8.25 kcal/mol|
|  sn= 3 | S(rot)=       0.01276488 Eh      8.01 kcal/mol|
|  sn= 4 | S(rot)=       0.01249326 Eh      7.84 kcal/mol|
|  sn= 5 | S(rot)=       0.01228257 Eh      7.71 kcal/mol|
|  sn= 6 | S(rot)=       0.01211043 Eh      7.60 kcal/mol|
|  sn= 7 | S(rot)=       0.01196488 Eh      7.51 kcal/mol|
|  sn= 8 | S(rot)=       0.01183880 Eh      7.43 kcal/mol|
|  sn= 9 | S(rot)=       0.01172759 Eh      7.36 kcal/mol|
|  sn=10 | S(rot)=       0.01162811 Eh      7.30 kcal/mol|
|  sn=11 | S(rot)=       0.01153812 Eh      7.24 kcal/mol|
|  sn=12 | S(rot)=       0.01145597 Eh      7.19 kcal/mol|
 --------------------------------------------------------

                             ****ORCA TERMINATED NORMALLY****
TOTAL RUN TIME: 0 days 3 hours 21 minutes 11 seconds 722 msec
