                         Program Version 4.2.0 -  RELEASE  -
|  1> #
|  2> # 09_H2O_6_prism tpssh/aug-cc-pvt(+d)z
|  3> #
|  4> ! tpssh d3bj aug-cc-pvt(+d)z def2/jk grid4 nofinalgrid opt xyzfile numfreq
|  5>
|  6> *xyz 0 1
|  7> O	-1.511782	-0.232325	1.434522
|  8> H	-0.6139	-0.631798	1.542476
|  9> H	-2.015087	-0.484249	2.21021
| 10> O	-1.744551	-0.350365	-1.322141
| 11> H	-1.89002	-0.475498	-0.368433
| 12> H	-2.508917	-0.726304	-1.761973
| 13> O	-0.568902	2.010658	-0.079448
| 14> H	-0.9578	1.52123	0.658817
| 15> H	-0.991476	1.598457	-0.84212
| 16> O	0.972064	-1.194842	1.413465
| 17> H	0.986177	-1.536208	0.500658
| 18> H	1.544338	-0.420911	1.334663
| 19> O	0.983916	-1.359847	-1.372465
| 20> H	0.077993	-1.073694	-1.552782
| 21> H	1.480193	-0.535792	-1.283351
| 22> O	2.003223	1.063257	-0.092296
| 23> H	1.144078	1.530799	-0.098089
| 24> H	2.67269	1.741694	-0.193152
| 25> *
| 26>
| 27> %maxcore 5000
| 28>
| 29> %pal
| 30> nprocs 24
| 31> end
| 32>
| 33>
| 34>                          ****END OF INPUT****
 Total Charge           Charge          ....    0
 Multiplicity           Mult            ....    1
 Number of Electrons    NEL             ....   60
Dispersion correction           -0.011553371
FINAL SINGLE POINT ENERGY      -458.826233619693
Dispersion correction            ... done
Dispersion correction           -0.011510441
FINAL SINGLE POINT ENERGY      -458.826763610545
Dispersion correction            ... done
Dispersion correction           -0.011582204
FINAL SINGLE POINT ENERGY      -458.826909296157
Dispersion correction            ... done
FINAL SINGLE POINT ENERGY      -458.827021375396
FINAL SINGLE POINT ENERGY      -458.827034817216
FINAL SINGLE POINT ENERGY      -458.827066699045
FINAL SINGLE POINT ENERGY      -458.827080270650
FINAL SINGLE POINT ENERGY      -458.827092684964
FINAL SINGLE POINT ENERGY      -458.827099084965
FINAL SINGLE POINT ENERGY      -458.827103156685
FINAL SINGLE POINT ENERGY      -458.827122320290
FINAL SINGLE POINT ENERGY      -458.827121054958
FINAL SINGLE POINT ENERGY      -458.827115666435
FINAL SINGLE POINT ENERGY      -458.827108600104
FINAL SINGLE POINT ENERGY      -458.827102833333
FINAL SINGLE POINT ENERGY      -458.827100121715
FINAL SINGLE POINT ENERGY      -458.827101622081
Dispersion correction            ... done
Dispersion correction           -0.011707883
FINAL SINGLE POINT ENERGY      -458.827106613461
Dispersion correction            ... done
Dispersion correction           -0.011708600
FINAL SINGLE POINT ENERGY      -458.827111685348
Dispersion correction            ... done
                    ***********************HURRAY********************

CARTESIAN COORDINATES (ANGSTROEM)
---------------------------------
  O     -1.455280   -0.208805    1.390993
  H     -0.554020   -0.645555    1.508351
  H     -1.995450   -0.469687    2.143800
  O     -1.683238   -0.339443   -1.325766
  H     -1.809018   -0.447342   -0.355606
  H     -2.456155   -0.728687   -1.748204
  O     -0.598067    2.086122   -0.035870
  H     -0.953582    1.541454    0.691990
  H     -1.011507    1.678835   -0.813252
  O      0.955559   -1.241546    1.415196
  H      0.966833   -1.548149    0.474953
  H      1.524419   -0.455858    1.367781
  O      0.987612   -1.402408   -1.326226
  H      0.080049   -1.106539   -1.528571
  H      1.488523   -0.570781   -1.248315
  O      1.918126    1.048795   -0.126986
  H      1.056268    1.537191   -0.108442
  H      2.601165    1.716666   -0.247265

 Multiplicity           Mult            ....    1
 Number of Electrons    NEL             ....   60
 Basis Dimension        Dim             ....  552

ORBITAL ENERGIES
----------------

  NO   OCC          E(Eh)            E(eV)
   0   2.0000     -19.072386      -518.9860
   1   2.0000     -19.070118      -518.9243
   2   2.0000     -19.059828      -518.6443
   3   2.0000     -19.058496      -518.6080
   4   2.0000     -19.050008      -518.3771
   5   2.0000     -19.039993      -518.1045
   6   2.0000      -1.014171       -27.5970
   7   2.0000      -1.000620       -27.2283
   8   2.0000      -0.997984       -27.1565
   9   2.0000      -0.989669       -26.9303
  10   2.0000      -0.980293       -26.6751
  11   2.0000      -0.969168       -26.3724
  12   2.0000      -0.539955       -14.6929
  13   2.0000      -0.523678       -14.2500
  14   2.0000      -0.517314       -14.0768
  15   2.0000      -0.506617       -13.7858
  16   2.0000      -0.496242       -13.5034
  17   2.0000      -0.493181       -13.4201
  18   2.0000      -0.416711       -11.3393
  19   2.0000      -0.408137       -11.1060
  20   2.0000      -0.386430       -10.5153
  21   2.0000      -0.379836       -10.3359
  22   2.0000      -0.369317       -10.0496
  23   2.0000      -0.345290        -9.3958
  24   2.0000      -0.316489        -8.6121
  25   2.0000      -0.312699        -8.5090
  26   2.0000      -0.302654        -8.2356
  27   2.0000      -0.301719        -8.2102
  28   2.0000      -0.295893        -8.0517
  29   2.0000      -0.279092        -7.5945
  30   0.0000      -0.031420        -0.8550
  31   0.0000      -0.009060        -0.2465
  32   0.0000      -0.002811        -0.0765
  33   0.0000       0.017665         0.4807
  34   0.0000       0.027431         0.7464

MULLIKEN ATOMIC CHARGES
-----------------------
   0 O :   -0.498643
   1 H :    0.315350
   2 H :    0.092184
   3 O :   -0.496311
   4 H :    0.338389
   5 H :    0.088818
   6 O :   -0.513421
   7 H :    0.322513
   8 H :    0.240934
   9 O :   -0.456220
  10 H :    0.316977
  11 H :    0.226201
  12 O :   -0.527978
  13 H :    0.328995
  14 H :    0.271658
  15 O :   -0.516693
  16 H :    0.368515
  17 H :    0.098732
Sum of atomic charges:    0.0000000

LOEWDIN ATOMIC CHARGES
----------------------
   0 O :    1.129628
   1 H :   -0.660457
   2 H :   -0.430254
   3 O :    1.110523
   4 H :   -0.636799
   5 H :   -0.448558
   6 O :    1.120300
   7 H :   -0.583613
   8 H :   -0.521281
   9 O :    1.132472
  10 H :   -0.608838
  11 H :   -0.515278
  12 O :    1.107933
  13 H :   -0.605837
  14 H :   -0.578313
  15 O :    1.102123
  16 H :   -0.656151
  17 H :   -0.457598

  Mayer bond orders larger than 0.100000
B(  0-O ,  1-H ) :   0.7106 B(  0-O ,  2-H ) :   1.0535 B(  0-O ,  9-O ) :  -0.1291
B(  1-H ,  9-O ) :   0.1696 B(  3-O ,  4-H ) :   0.7515 B(  3-O ,  5-H ) :   1.0727
B(  6-O ,  7-H ) :   0.8088 B(  6-O ,  8-H ) :   0.9157 B(  9-O , 10-H ) :   0.7894
B(  9-O , 11-H ) :   0.9210 B( 12-O , 13-H ) :   0.8302 B( 12-O , 14-H ) :   0.8786
B( 15-O , 16-H ) :   0.7340 B( 15-O , 17-H ) :   1.0492

Dispersion correction           -0.011705867
FINAL SINGLE POINT ENERGY      -458.827114667120

DIPOLE MOMENT
-------------
                                X             Y             Z
Electronic contribution:      0.20015      -0.12585       0.02001
Nuclear contribution   :     -1.09197       0.51283       0.12863
                        -----------------------------------------
Total Dipole Moment    :     -0.89182       0.38698       0.14864
                        -----------------------------------------
Magnitude (a.u.)       :      0.98346
Magnitude (Debye)      :      2.49976

VIBRATIONAL FREQUENCIES
-----------------------

Scaling factor for frequencies =  1.000000000 (already applied!)

   0:         0.00 cm**-1
   1:         0.00 cm**-1
   2:         0.00 cm**-1
   3:         0.00 cm**-1
   4:         0.00 cm**-1
   5:         0.00 cm**-1
   6:        50.96 cm**-1
   7:        64.02 cm**-1
   8:        73.28 cm**-1
   9:        82.49 cm**-1
  10:        90.51 cm**-1
  11:       143.73 cm**-1
  12:       172.05 cm**-1
  13:       181.95 cm**-1
  14:       225.01 cm**-1
  15:       233.04 cm**-1
  16:       254.49 cm**-1
  17:       257.09 cm**-1
  18:       270.97 cm**-1
  19:       298.14 cm**-1
  20:       318.09 cm**-1
  21:       383.46 cm**-1
  22:       397.71 cm**-1
  23:       457.61 cm**-1
  24:       459.27 cm**-1
  25:       498.76 cm**-1
  26:       520.72 cm**-1
  27:       563.52 cm**-1
  28:       591.33 cm**-1
  29:       660.02 cm**-1
  30:       688.52 cm**-1
  31:       733.93 cm**-1
  32:       777.02 cm**-1
  33:       887.69 cm**-1
  34:       924.99 cm**-1
  35:      1090.95 cm**-1
  36:      1651.72 cm**-1
  37:      1667.16 cm**-1
  38:      1669.83 cm**-1
  39:      1696.48 cm**-1
  40:      1704.60 cm**-1
  41:      1725.07 cm**-1
  42:      2973.54 cm**-1
  43:      3293.69 cm**-1
  44:      3358.27 cm**-1
  45:      3419.33 cm**-1
  46:      3579.77 cm**-1
  47:      3595.90 cm**-1
  48:      3645.53 cm**-1
  49:      3701.64 cm**-1
  50:      3720.92 cm**-1
  51:      3830.06 cm**-1
  52:      3831.15 cm**-1
  53:      3833.89 cm**-1

IR SPECTRUM
-----------

 Mode    freq (cm**-1)   T**2         TX         TY         TZ
-------------------------------------------------------------------
   6:        50.96    0.061054  (  0.205468   0.089945  -0.103666)
   7:        64.02    1.640733  ( -0.972041  -0.279524  -0.785961)
   8:        73.28    1.484057  ( -0.295055  -0.089516   1.178553)
   9:        82.49    0.325131  ( -0.119350   0.379075  -0.408887)
  10:        90.51    1.203937  (  0.034864   0.033835  -1.096164)
  11:       143.73    1.187355  ( -0.734992   0.788944   0.157192)
  12:       172.05   10.077155  (  1.658734   2.119935   1.682745)
  13:       181.95    1.341890  ( -0.952485   0.591942  -0.290288)
  14:       225.01    2.288314  (  0.757641  -0.520625   1.201351)
  15:       233.04   34.706238  ( -4.474954   2.549247  -2.860483)
  16:       254.49   52.350097  (  4.948753  -3.055395  -4.304010)
  17:       257.09   32.417178  (  0.453488  -2.911704   4.871705)
  18:       270.97   42.029607  (  0.296304   1.847308   6.207195)
  19:       298.14   47.621301  ( -1.364155  -6.763481   0.125303)
  20:       318.09   25.565287  ( -4.872871   1.346761   0.081543)
  21:       383.46   47.842225  ( -5.096587   3.743495  -2.802369)
  22:       397.71    6.317631  (  0.223399   2.423621   0.627523)
  23:       457.61   80.082698  (  6.001810  -6.053349  -2.723588)
  24:       459.27   45.565306  (  2.792425  -0.048234   6.145351)
  25:       498.76   60.034932  ( -0.822002   1.137366  -7.620082)
  26:       520.72   34.867847  (  5.830740  -0.551221  -0.752643)
  27:       563.52  193.021089  (-13.619341  -0.492083  -2.700463)
  28:       591.33   45.382806  ( -4.043018  -4.723699  -2.592967)
  29:       660.02  136.526042  (  0.129728   0.453083  11.674927)
  30:       688.52  258.440199  ( -2.673890   6.500244  14.458124)
  31:       733.93  176.856724  ( -7.800571  10.551973   2.159558)
  32:       777.02  181.857417  (  7.341623 -10.300352   4.675548)
  33:       887.69   43.642095  ( -4.386144   4.434898  -2.176124)
  34:       924.99   56.178089  (  3.188470  -3.163640  -6.000261)
  35:      1090.95   51.663263  (  3.069550   4.956840   4.203673)
  36:      1651.72  135.716841  (  7.372131   8.899317   1.473326)
  37:      1667.16   93.962720  ( -1.716631  -6.699612   6.791988)
  38:      1669.83   41.254687  ( -3.589848   3.510845   4.005202)
  39:      1696.48   17.318005  (  3.625976  -2.016576   0.322069)
  40:      1704.60  142.202121  (  3.021189  10.297497  -5.199624)
  41:      1725.07   45.936540  (  2.814306   0.567779  -6.139531)
  42:      2973.54  1069.428431  ( 30.400327 -11.951104  -1.555527)
  43:      3293.69  863.939750  ( 27.902527  -8.977905  -2.187691)
  44:      3358.27  391.722777  ( -6.668317  -0.162452 -18.634107)
  45:      3419.33  613.890775  (  2.400350  -3.542765 -24.404465)
  46:      3579.77  258.387470  (-13.960109   7.606767   2.374853)
  47:      3595.90  307.743076  ( -3.973434 -12.226248  11.936237)
  48:      3645.53  305.524256  (-15.124746  -6.877527  -5.428255)
  49:      3701.64  196.471145  (  7.933662  11.528923  -0.782360)
  50:      3720.92  174.045317  (  4.466940   4.132060  11.705462)
  51:      3830.06   63.415300  (  1.746927  -1.069603  -7.695420)
  52:      3831.15   61.361641  (  7.205143   1.942191   2.382321)
  53:      3833.89   49.078213  ( -6.696576  -1.734708   1.106738)

--------------------------
THERMOCHEMISTRY AT 298.15K
--------------------------

Temperature         ... 298.15 K
Pressure            ... 1.00 atm
Total Mass          ... 108.09 AMU

Throughout the following assumptions are being made:
  (1) The electronic state is orbitally nondegenerate
  (2) There are no thermally accessible electronically excited states
  (3) Hindered rotations indicated by low frequency modes are not
      treated as such but are treated as vibrations and this may
      cause some error
  (4) All equations used are the standard statistical mechanics
      equations for an ideal gas
  (5) All vibrations are strictly harmonic

freq.      50.96  E(vib)   ...       0.52
freq.      64.02  E(vib)   ...       0.51
freq.      73.28  E(vib)   ...       0.49
freq.      82.49  E(vib)   ...       0.48
freq.      90.51  E(vib)   ...       0.47
freq.     143.73  E(vib)   ...       0.41
freq.     172.05  E(vib)   ...       0.38
freq.     181.95  E(vib)   ...       0.37
freq.     225.01  E(vib)   ...       0.33
freq.     233.04  E(vib)   ...       0.32
freq.     254.49  E(vib)   ...       0.30
freq.     257.09  E(vib)   ...       0.30
freq.     270.97  E(vib)   ...       0.29
freq.     298.14  E(vib)   ...       0.27
freq.     318.09  E(vib)   ...       0.25
freq.     383.46  E(vib)   ...       0.20
freq.     397.71  E(vib)   ...       0.20
freq.     457.61  E(vib)   ...       0.16
freq.     459.27  E(vib)   ...       0.16
freq.     498.76  E(vib)   ...       0.14
freq.     520.72  E(vib)   ...       0.13
freq.     563.52  E(vib)   ...       0.11
freq.     591.33  E(vib)   ...       0.10
freq.     660.02  E(vib)   ...       0.08
freq.     688.52  E(vib)   ...       0.07
freq.     733.93  E(vib)   ...       0.06
freq.     777.02  E(vib)   ...       0.05
freq.     887.69  E(vib)   ...       0.04
freq.     924.99  E(vib)   ...       0.03
freq.    1090.95  E(vib)   ...       0.02
freq.    1651.72  E(vib)   ...       0.00
freq.    1667.16  E(vib)   ...       0.00
freq.    1669.83  E(vib)   ...       0.00
freq.    1696.48  E(vib)   ...       0.00
freq.    1704.60  E(vib)   ...       0.00
freq.    1725.07  E(vib)   ...       0.00
freq.    2973.54  E(vib)   ...       0.00
freq.    3293.69  E(vib)   ...       0.00
freq.    3358.27  E(vib)   ...       0.00
freq.    3419.33  E(vib)   ...       0.00
freq.    3579.77  E(vib)   ...       0.00
freq.    3595.90  E(vib)   ...       0.00
freq.    3645.53  E(vib)   ...       0.00
freq.    3701.64  E(vib)   ...       0.00
freq.    3720.92  E(vib)   ...       0.00
freq.    3830.06  E(vib)   ...       0.00
freq.    3831.15  E(vib)   ...       0.00
freq.    3833.89  E(vib)   ...       0.00

------------
INNER ENERGY
------------

The inner energy is: U= E(el) + E(ZPE) + E(vib) + E(rot) + E(trans)
    E(el)   - is the total energy from the electronic structure calculation
              = E(kin-el) + E(nuc-el) + E(el-el) + E(nuc-nuc)
    E(ZPE)  - the the zero temperature vibrational energy from the frequency calculation
    E(vib)  - the the finite temperature correction to E(ZPE) due to population
              of excited vibrational states
    E(rot)  - is the rotational thermal energy
    E(trans)- is the translational thermal energy

Summary of contributions to the inner energy U:
Electronic energy                ...   -458.82711467 Eh
Zero point energy                ...      0.14865016 Eh      93.28 kcal/mol
Thermal vibrational correction   ...      0.01157433 Eh       7.26 kcal/mol
Thermal rotational correction    ...      0.00141627 Eh       0.89 kcal/mol
Thermal translational correction ...      0.00141627 Eh       0.89 kcal/mol
-----------------------------------------------------------------------
Total thermal energy                   -458.66405763 Eh

Summary of corrections to the electronic energy:
(perhaps to be used in another calculation)
Total thermal correction                  0.01440687 Eh       9.04 kcal/mol
Non-thermal (ZPE) correction              0.14865016 Eh      93.28 kcal/mol
-----------------------------------------------------------------------
Total correction                          0.16305703 Eh     102.32 kcal/mol

--------
ENTHALPY
--------

The enthalpy is H = U + kB*T
                kB is Boltzmann's constant
Total free energy                 ...   -458.66405763 Eh
Thermal Enthalpy correction       ...      0.00094421 Eh       0.59 kcal/mol
-----------------------------------------------------------------------
Total Enthalpy                    ...   -458.66311342 Eh

Note: Only C1 symmetry has been detected, increase convergence thresholds
      if your molecule has a higher symmetry. Symmetry factor of 1.0 is
      used for the rotational entropy correction.

Note: Rotational entropy computed according to Herzberg
Infrared and Raman Spectra, Chapter V,1, Van Nostrand Reinhold, 1945
Point Group:  C1, Symmetry Number:   1
Rotational constants in cm-1:     0.056927     0.049162     0.046162

Vibrational entropy computed according to the QRRHO of S. Grimme
Chem.Eur.J. 2012 18 9955

-------
ENTROPY
-------

The entropy contributions are T*S = T*(S(el)+S(vib)+S(rot)+S(trans))
     S(el)   - electronic entropy
     S(vib)  - vibrational entropy
     S(rot)  - rotational entropy
     S(trans)- translational entropy
The entropies will be listed as mutliplied by the temperature to get
units of energy

Electronic entropy                ...      0.00000000 Eh      0.00 kcal/mol
Vibrational entropy               ...      0.02053733 Eh     12.89 kcal/mol
Rotational entropy                ...      0.01373801 Eh      8.62 kcal/mol
Translational entropy             ...      0.01898142 Eh     11.91 kcal/mol
-----------------------------------------------------------------------
Final entropy term                ...      0.05325676 Eh     33.42 kcal/mol

In case the symmetry of your molecule has not been determined correctly
or in case you have a reason to use a different symmetry number we print
out the resulting rotational entropy values for sn=1,12 :
 --------------------------------------------------------
|  sn= 1 | S(rot)=       0.01373801 Eh      8.62 kcal/mol|
|  sn= 2 | S(rot)=       0.01308356 Eh      8.21 kcal/mol|
|  sn= 3 | S(rot)=       0.01270072 Eh      7.97 kcal/mol|
|  sn= 4 | S(rot)=       0.01242910 Eh      7.80 kcal/mol|
|  sn= 5 | S(rot)=       0.01221841 Eh      7.67 kcal/mol|
|  sn= 6 | S(rot)=       0.01204627 Eh      7.56 kcal/mol|
|  sn= 7 | S(rot)=       0.01190072 Eh      7.47 kcal/mol|
|  sn= 8 | S(rot)=       0.01177464 Eh      7.39 kcal/mol|
|  sn= 9 | S(rot)=       0.01166344 Eh      7.32 kcal/mol|
|  sn=10 | S(rot)=       0.01156396 Eh      7.26 kcal/mol|
|  sn=11 | S(rot)=       0.01147397 Eh      7.20 kcal/mol|
|  sn=12 | S(rot)=       0.01139181 Eh      7.15 kcal/mol|
 --------------------------------------------------------

                             ****ORCA TERMINATED NORMALLY****
TOTAL RUN TIME: 0 days 3 hours 21 minutes 55 seconds 88 msec
