                         Program Version 4.2.0 -  RELEASE  -
|  1> #
|  2> # 01_H2O scanfunc/aug-cc-pvt(+d)z
|  3> #
|  4> ! scanfunc d3bj aug-cc-pvt(+d)z def2/j grid4 nofinalgrid opt xyzfile numfreq
|  5>
|  6> *xyz 0 1
|  7> O	0	0	0.12434822
|  8> H	0	-1.43139324	-0.98674827
|  9> H	0	1.43139324	-0.98674827
| 10> *
| 11>
| 12> %maxcore 5000
| 13>
| 14> %pal
| 15> nprocs 24
| 16> end
| 17>
| 18>
| 19>                          ****END OF INPUT****
 Total Charge           Charge          ....    0
 Multiplicity           Mult            ....    1
 Number of Electrons    NEL             ....   10
Dispersion correction           -0.000150422
FINAL SINGLE POINT ENERGY       -76.116285324009
Dispersion correction            ... done
Dispersion correction           -0.000151875
FINAL SINGLE POINT ENERGY       -76.152121579056
Dispersion correction            ... done
Dispersion correction           -0.000152805
FINAL SINGLE POINT ENERGY       -76.191322065710
Dispersion correction            ... done
FINAL SINGLE POINT ENERGY       -76.234452579727
FINAL SINGLE POINT ENERGY       -76.281144347520
FINAL SINGLE POINT ENERGY       -76.329886544883
FINAL SINGLE POINT ENERGY       -76.376448249816
FINAL SINGLE POINT ENERGY       -76.412166514217
FINAL SINGLE POINT ENERGY       -76.418920634038
FINAL SINGLE POINT ENERGY       -76.420473154541
FINAL SINGLE POINT ENERGY       -76.419862021153
FINAL SINGLE POINT ENERGY       -76.419501872923
Dispersion correction            ... done
Dispersion correction           -0.000079332
FINAL SINGLE POINT ENERGY       -76.419300825981
Dispersion correction            ... done
Dispersion correction           -0.000079331
FINAL SINGLE POINT ENERGY       -76.419336882187
Dispersion correction            ... done
                    ***********************HURRAY********************

CARTESIAN COORDINATES (ANGSTROEM)
---------------------------------
  O      0.000000    0.000000   -0.312341
  H      0.000000   -0.824432   -0.768400
  H      0.000000    0.824432   -0.768407

 Multiplicity           Mult            ....    1
 Number of Electrons    NEL             ....   10
 Basis Dimension        Dim             ....   92

ORBITAL ENERGIES
----------------

  NO   OCC          E(Eh)            E(eV)
   0   2.0000     -18.956510      -515.8329
   1   2.0000      -0.978586       -26.6287
   2   2.0000      -0.534979       -14.5575
   3   2.0000      -0.326834        -8.8936
   4   2.0000      -0.279430        -7.6037
   5   0.0000      -0.006124        -0.1666
   6   0.0000       0.033673         0.9163
   7   0.0000       0.089535         2.4364
   8   0.0000       0.118880         3.2349
   9   0.0000       0.120577         3.2811

MULLIKEN ATOMIC CHARGES
-----------------------
   0 O :   -0.362596
   1 H :    0.181296
   2 H :    0.181300
Sum of atomic charges:    0.0000000

LOEWDIN ATOMIC CHARGES
----------------------
   0 O :    1.069509
   1 H :   -0.534758
   2 H :   -0.534751

  Mayer bond orders larger than 0.100000
B(  0-O ,  1-H ) :   1.0269 B(  0-O ,  2-H ) :   1.0269

Dispersion correction           -0.000079332
FINAL SINGLE POINT ENERGY       -76.419384015085

DIPOLE MOMENT
-------------
                                X             Y             Z
Electronic contribution:     -0.00000       0.00000       0.15558
Nuclear contribution   :      0.00000      -0.00000      -0.75922
                        -----------------------------------------
Total Dipole Moment    :     -0.00000       0.00000      -0.60363
                        -----------------------------------------
Magnitude (a.u.)       :      0.60363
Magnitude (Debye)      :      1.53431

VIBRATIONAL FREQUENCIES
-----------------------

Scaling factor for frequencies =  1.000000000 (already applied!)

   0:         0.00 cm**-1
   1:         0.00 cm**-1
   2:         0.00 cm**-1
   3:         0.00 cm**-1
   4:         0.00 cm**-1
   5:         0.00 cm**-1
   6:      1302.94 cm**-1
   7:      3981.43 cm**-1
   8:      4224.43 cm**-1

IR SPECTRUM
-----------

 Mode    freq (cm**-1)   T**2         TX         TY         TZ
-------------------------------------------------------------------
   6:      1302.94  111.769186  (  0.000049  -0.000042 -10.572095)
   7:      3981.43    1.777585  (  0.000012  -0.000813   1.333261)
   8:      4224.43  107.476336  (  0.000004  10.367079   0.000061)

--------------------------
THERMOCHEMISTRY AT 298.15K
--------------------------

Temperature         ... 298.15 K
Pressure            ... 1.00 atm
Total Mass          ... 18.02 AMU

Throughout the following assumptions are being made:
  (1) The electronic state is orbitally nondegenerate
  (2) There are no thermally accessible electronically excited states
  (3) Hindered rotations indicated by low frequency modes are not
      treated as such but are treated as vibrations and this may
      cause some error
  (4) All equations used are the standard statistical mechanics
      equations for an ideal gas
  (5) All vibrations are strictly harmonic

freq.    1302.94  E(vib)   ...       0.01
freq.    3981.43  E(vib)   ...       0.00
freq.    4224.43  E(vib)   ...       0.00

------------
INNER ENERGY
------------

The inner energy is: U= E(el) + E(ZPE) + E(vib) + E(rot) + E(trans)
    E(el)   - is the total energy from the electronic structure calculation
              = E(kin-el) + E(nuc-el) + E(el-el) + E(nuc-nuc)
    E(ZPE)  - the the zero temperature vibrational energy from the frequency calculation
    E(vib)  - the the finite temperature correction to E(ZPE) due to population
              of excited vibrational states
    E(rot)  - is the rotational thermal energy
    E(trans)- is the translational thermal energy

Summary of contributions to the inner energy U:
Electronic energy                ...    -76.41938401 Eh
Zero point energy                ...      0.02166263 Eh      13.59 kcal/mol
Thermal vibrational correction   ...      0.00001106 Eh       0.01 kcal/mol
Thermal rotational correction    ...      0.00141627 Eh       0.89 kcal/mol
Thermal translational correction ...      0.00141627 Eh       0.89 kcal/mol
-----------------------------------------------------------------------
Total thermal energy                    -76.39487778 Eh

Summary of corrections to the electronic energy:
(perhaps to be used in another calculation)
Total thermal correction                  0.00284360 Eh       1.78 kcal/mol
Non-thermal (ZPE) correction              0.02166263 Eh      13.59 kcal/mol
-----------------------------------------------------------------------
Total correction                          0.02450624 Eh      15.38 kcal/mol

--------
ENTHALPY
--------

The enthalpy is H = U + kB*T
                kB is Boltzmann's constant
Total free energy                 ...    -76.39487778 Eh
Thermal Enthalpy correction       ...      0.00094421 Eh       0.59 kcal/mol
-----------------------------------------------------------------------
Total Enthalpy                    ...    -76.39393357 Eh

Note: Rotational entropy computed according to Herzberg
Infrared and Raman Spectra, Chapter V,1, Van Nostrand Reinhold, 1945
Point Group:  Cs, Symmetry Number:   1
Rotational constants in cm-1:    45.268808    12.302587     9.673614

Vibrational entropy computed according to the QRRHO of S. Grimme
Chem.Eur.J. 2012 18 9955

-------
ENTROPY
-------

The entropy contributions are T*S = T*(S(el)+S(vib)+S(rot)+S(trans))
     S(el)   - electronic entropy
     S(vib)  - vibrational entropy
     S(rot)  - rotational entropy
     S(trans)- translational entropy
The entropies will be listed as mutliplied by the temperature to get
units of energy

Electronic entropy                ...      0.00000000 Eh      0.00 kcal/mol
Vibrational entropy               ...      0.00001282 Eh      0.01 kcal/mol
Rotational entropy                ...      0.00545469 Eh      3.42 kcal/mol
Translational entropy             ...      0.01644380 Eh     10.32 kcal/mol
-----------------------------------------------------------------------
Final entropy term                ...      0.02191131 Eh     13.75 kcal/mol

In case the symmetry of your molecule has not been determined correctly
or in case you have a reason to use a different symmetry number we print
out the resulting rotational entropy values for sn=1,12 :
 --------------------------------------------------------
|  sn= 1 | S(rot)=       0.00545469 Eh      3.42 kcal/mol|
|  sn= 2 | S(rot)=       0.00480023 Eh      3.01 kcal/mol|
|  sn= 3 | S(rot)=       0.00441740 Eh      2.77 kcal/mol|
|  sn= 4 | S(rot)=       0.00414578 Eh      2.60 kcal/mol|
|  sn= 5 | S(rot)=       0.00393509 Eh      2.47 kcal/mol|
|  sn= 6 | S(rot)=       0.00376294 Eh      2.36 kcal/mol|
|  sn= 7 | S(rot)=       0.00361740 Eh      2.27 kcal/mol|
|  sn= 8 | S(rot)=       0.00349132 Eh      2.19 kcal/mol|
|  sn= 9 | S(rot)=       0.00338011 Eh      2.12 kcal/mol|
|  sn=10 | S(rot)=       0.00328063 Eh      2.06 kcal/mol|
|  sn=11 | S(rot)=       0.00319064 Eh      2.00 kcal/mol|
|  sn=12 | S(rot)=       0.00310849 Eh      1.95 kcal/mol|
 --------------------------------------------------------

-------------------
GIBBS FREE ENERGY
-------------------

The Gibbs free energy is G = H - T*S

Total enthalpy                    ...    -76.39393357 Eh
Total entropy correction          ...     -0.02191131 Eh    -13.75 kcal/mol
-----------------------------------------------------------------------
Final Gibbs free energy         ...    -76.41584488 Eh

For completeness - the Gibbs free energy minus the electronic energy
G-E(el)                           ...      0.00353913 Eh      2.22 kcal/mol

                             ****ORCA TERMINATED NORMALLY****
TOTAL RUN TIME: 0 days 0 hours 0 minutes 53 seconds 613 msec
