                         Program Version 4.2.0 -  RELEASE  -
|  1> #
|  2> # 01_H2O tpss/aug-cc-pvt(+d)z
|  3> #
|  4> ! tpss d3bj aug-cc-pvt(+d)z def2/j grid4 nofinalgrid opt xyzfile numfreq
|  5>
|  6> *xyz 0 1
|  7> O	0	0	0.12434822
|  8> H	0	-1.43139324	-0.98674827
|  9> H	0	1.43139324	-0.98674827
| 10> *
| 11>
| 12> %maxcore 5000
| 13>
| 14> %pal
| 15> nprocs 24
| 16> end
| 17>
| 18>
| 19>                          ****END OF INPUT****
 Total Charge           Charge          ....    0
 Multiplicity           Mult            ....    1
 Number of Electrons    NEL             ....   10
Dispersion correction           -0.000747296
FINAL SINGLE POINT ENERGY       -76.175834971477
Dispersion correction            ... done
Dispersion correction           -0.000774549
FINAL SINGLE POINT ENERGY       -76.212413285457
Dispersion correction            ... done
Dispersion correction           -0.000793639
FINAL SINGLE POINT ENERGY       -76.252777898291
Dispersion correction            ... done
FINAL SINGLE POINT ENERGY       -76.296556412688
FINAL SINGLE POINT ENERGY       -76.342772167952
FINAL SINGLE POINT ENERGY       -76.389192578834
FINAL SINGLE POINT ENERGY       -76.431622427050
FINAL SINGLE POINT ENERGY       -76.461386034144
FINAL SINGLE POINT ENERGY       -76.463993847874
FINAL SINGLE POINT ENERGY       -76.467216306200
FINAL SINGLE POINT ENERGY       -76.467336968259
FINAL SINGLE POINT ENERGY       -76.467340843039
Dispersion correction            ... done
Dispersion correction           -0.000420468
FINAL SINGLE POINT ENERGY       -76.467335683477
Dispersion correction            ... done
Dispersion correction           -0.000420468
FINAL SINGLE POINT ENERGY       -76.467340735947
Dispersion correction            ... done
                    ***********************HURRAY********************

CARTESIAN COORDINATES (ANGSTROEM)
---------------------------------
  O      0.000000    0.000000   -0.219409
  H      0.000000   -0.764113   -0.814870
  H      0.000000    0.764112   -0.814870

 Multiplicity           Mult            ....    1
 Number of Electrons    NEL             ....   10
 Basis Dimension        Dim             ....   92

ORBITAL ENERGIES
----------------

  NO   OCC          E(Eh)            E(eV)
   0   2.0000     -18.892793      -514.0990
   1   2.0000      -0.949073       -25.8256
   2   2.0000      -0.485477       -13.2105
   3   2.0000      -0.347428        -9.4540
   4   2.0000      -0.268596        -7.3089
   5   0.0000      -0.029428        -0.8008
   6   0.0000       0.019038         0.5180
   7   0.0000       0.072988         1.9861
   8   0.0000       0.091276         2.4838
   9   0.0000       0.098435         2.6786

MULLIKEN ATOMIC CHARGES
-----------------------
   0 O :   -0.342064
   1 H :    0.171032
   2 H :    0.171031
Sum of atomic charges:   -0.0000000

LOEWDIN ATOMIC CHARGES
----------------------
   0 O :    1.019093
   1 H :   -0.509546
   2 H :   -0.509548

  Mayer bond orders larger than 0.100000
B(  0-O ,  1-H ) :   1.0173 B(  0-O ,  2-H ) :   1.0173

Dispersion correction           -0.000420468
FINAL SINGLE POINT ENERGY       -76.467340748787

DIPOLE MOMENT
-------------
                                X             Y             Z
Electronic contribution:     -0.00000       0.00000       0.27805
Nuclear contribution   :      0.00000      -0.00000      -0.99128
                        -----------------------------------------
Total Dipole Moment    :     -0.00000       0.00000      -0.71323
                        -----------------------------------------
Magnitude (a.u.)       :      0.71323
Magnitude (Debye)      :      1.81288

VIBRATIONAL FREQUENCIES
-----------------------

Scaling factor for frequencies =  1.000000000 (already applied!)

   0:         0.00 cm**-1
   1:         0.00 cm**-1
   2:         0.00 cm**-1
   3:         0.00 cm**-1
   4:         0.00 cm**-1
   5:         0.00 cm**-1
   6:      1631.56 cm**-1
   7:      3698.89 cm**-1
   8:      3801.52 cm**-1

IR SPECTRUM
-----------

 Mode    freq (cm**-1)   T**2         TX         TY         TZ
-------------------------------------------------------------------
   6:      1631.56   66.325674  ( -0.000001  -0.000008  -8.144058)
   7:      3698.89    1.463532  ( -0.000000   0.000437   1.209765)
   8:      3801.52   42.477449  ( -0.000009   6.517473  -0.000066)

--------------------------
THERMOCHEMISTRY AT 298.15K
--------------------------

Temperature         ... 298.15 K
Pressure            ... 1.00 atm
Total Mass          ... 18.02 AMU

Throughout the following assumptions are being made:
  (1) The electronic state is orbitally nondegenerate
  (2) There are no thermally accessible electronically excited states
  (3) Hindered rotations indicated by low frequency modes are not
      treated as such but are treated as vibrations and this may
      cause some error
  (4) All equations used are the standard statistical mechanics
      equations for an ideal gas
  (5) All vibrations are strictly harmonic

freq.    1631.56  E(vib)   ...       0.00
freq.    3698.89  E(vib)   ...       0.00
freq.    3801.52  E(vib)   ...       0.00

------------
INNER ENERGY
------------

The inner energy is: U= E(el) + E(ZPE) + E(vib) + E(rot) + E(trans)
    E(el)   - is the total energy from the electronic structure calculation
              = E(kin-el) + E(nuc-el) + E(el-el) + E(nuc-nuc)
    E(ZPE)  - the the zero temperature vibrational energy from the frequency calculation
    E(vib)  - the the finite temperature correction to E(ZPE) due to population
              of excited vibrational states
    E(rot)  - is the rotational thermal energy
    E(trans)- is the translational thermal energy

Summary of contributions to the inner energy U:
Electronic energy                ...    -76.46734075 Eh
Zero point energy                ...      0.02080415 Eh      13.05 kcal/mol
Thermal vibrational correction   ...      0.00000283 Eh       0.00 kcal/mol
Thermal rotational correction    ...      0.00141627 Eh       0.89 kcal/mol
Thermal translational correction ...      0.00141627 Eh       0.89 kcal/mol
-----------------------------------------------------------------------
Total thermal energy                    -76.44370122 Eh

Summary of corrections to the electronic energy:
(perhaps to be used in another calculation)
Total thermal correction                  0.00283538 Eh       1.78 kcal/mol
Non-thermal (ZPE) correction              0.02080415 Eh      13.05 kcal/mol
-----------------------------------------------------------------------
Total correction                          0.02363952 Eh      14.83 kcal/mol

--------
ENTHALPY
--------

The enthalpy is H = U + kB*T
                kB is Boltzmann's constant
Total free energy                 ...    -76.44370122 Eh
Thermal Enthalpy correction       ...      0.00094421 Eh       0.59 kcal/mol
-----------------------------------------------------------------------
Total Enthalpy                    ...    -76.44275701 Eh

Note: Rotational entropy computed according to Herzberg
Infrared and Raman Spectra, Chapter V,1, Van Nostrand Reinhold, 1945
Point Group:  Cs, Symmetry Number:   1
Rotational constants in cm-1:    26.554658    14.321600     9.303816

Vibrational entropy computed according to the QRRHO of S. Grimme
Chem.Eur.J. 2012 18 9955

-------
ENTROPY
-------

The entropy contributions are T*S = T*(S(el)+S(vib)+S(rot)+S(trans))
     S(el)   - electronic entropy
     S(vib)  - vibrational entropy
     S(rot)  - rotational entropy
     S(trans)- translational entropy
The entropies will be listed as mutliplied by the temperature to get
units of energy

Electronic entropy                ...      0.00000000 Eh      0.00 kcal/mol
Vibrational entropy               ...      0.00000319 Eh      0.00 kcal/mol
Rotational entropy                ...      0.00565317 Eh      3.55 kcal/mol
Translational entropy             ...      0.01644380 Eh     10.32 kcal/mol
-----------------------------------------------------------------------
Final entropy term                ...      0.02210016 Eh     13.87 kcal/mol

In case the symmetry of your molecule has not been determined correctly
or in case you have a reason to use a different symmetry number we print
out the resulting rotational entropy values for sn=1,12 :
 --------------------------------------------------------
|  sn= 1 | S(rot)=       0.00565317 Eh      3.55 kcal/mol|
|  sn= 2 | S(rot)=       0.00499871 Eh      3.14 kcal/mol|
|  sn= 3 | S(rot)=       0.00461588 Eh      2.90 kcal/mol|
|  sn= 4 | S(rot)=       0.00434426 Eh      2.73 kcal/mol|
|  sn= 5 | S(rot)=       0.00413357 Eh      2.59 kcal/mol|
|  sn= 6 | S(rot)=       0.00396143 Eh      2.49 kcal/mol|
|  sn= 7 | S(rot)=       0.00381588 Eh      2.39 kcal/mol|
|  sn= 8 | S(rot)=       0.00368980 Eh      2.32 kcal/mol|
|  sn= 9 | S(rot)=       0.00357859 Eh      2.25 kcal/mol|
|  sn=10 | S(rot)=       0.00347911 Eh      2.18 kcal/mol|
|  sn=11 | S(rot)=       0.00338912 Eh      2.13 kcal/mol|
|  sn=12 | S(rot)=       0.00330697 Eh      2.08 kcal/mol|
 --------------------------------------------------------

-------------------
GIBBS FREE ENERGY
-------------------

The Gibbs free energy is G = H - T*S

Total enthalpy                    ...    -76.44275701 Eh
Total entropy correction          ...     -0.02210016 Eh    -13.87 kcal/mol
-----------------------------------------------------------------------
Final Gibbs free energy         ...    -76.46485718 Eh

For completeness - the Gibbs free energy minus the electronic energy
G-E(el)                           ...      0.00248357 Eh      1.56 kcal/mol

                             ****ORCA TERMINATED NORMALLY****
TOTAL RUN TIME: 0 days 0 hours 1 minutes 1 seconds 420 msec
