                         Program Version 4.2.0 -  RELEASE  -
|  1> #
|  2> # 02_H2O_2 tpss/aug-cc-pvt(+d)z
|  3> #
|  4> ! tpss d3bj aug-cc-pvt(+d)z def2/j grid4 nofinalgrid opt xyzfile numfreq
|  5>
|  6> *xyz 0 1
|  7> O	0.12629641	2.81863838	0
|  8> H	-1.55012056	3.50228598	0
|  9> H	-0.11213325	1.01044862	0
| 10> O	-0.11743248	-2.68035303	0
| 11> H	0.7607884	-3.35371171	-1.4365769
| 12> H	0.7607884	-3.35371171	1.4365769
| 13> *
| 14>
| 15> %maxcore 5000
| 16>
| 17> %pal
| 18> nprocs 24
| 19> end
| 20>
| 21>
| 22>                          ****END OF INPUT****
 Total Charge           Charge          ....    0
 Multiplicity           Mult            ....    1
 Number of Electrons    NEL             ....   20
Dispersion correction           -0.001654008
FINAL SINGLE POINT ENERGY      -152.351398206947
Dispersion correction            ... done
Dispersion correction           -0.001700046
FINAL SINGLE POINT ENERGY      -152.402091092229
Dispersion correction            ... done
Dispersion correction           -0.001739476
FINAL SINGLE POINT ENERGY      -152.456647853043
Dispersion correction            ... done
FINAL SINGLE POINT ENERGY      -152.514927403963
FINAL SINGLE POINT ENERGY      -152.576623909088
FINAL SINGLE POINT ENERGY      -152.641108728258
FINAL SINGLE POINT ENERGY      -152.707181566373
FINAL SINGLE POINT ENERGY      -152.772894373073
FINAL SINGLE POINT ENERGY      -152.835275366519
FINAL SINGLE POINT ENERGY      -152.889259953764
FINAL SINGLE POINT ENERGY      -152.942651686917
FINAL SINGLE POINT ENERGY      -152.942648843065
FINAL SINGLE POINT ENERGY      -152.942689386018
FINAL SINGLE POINT ENERGY      -152.942711407740
FINAL SINGLE POINT ENERGY      -152.942758329495
FINAL SINGLE POINT ENERGY      -152.942750425765
FINAL SINGLE POINT ENERGY      -152.942761508571
Dispersion correction            ... done
Dispersion correction           -0.001669775
FINAL SINGLE POINT ENERGY      -152.942763641537
Dispersion correction            ... done
Dispersion correction           -0.001670208
FINAL SINGLE POINT ENERGY      -152.942763309618
Dispersion correction            ... done
                    ***********************HURRAY********************

CARTESIAN COORDINATES (ANGSTROEM)
---------------------------------
  O      0.065216    1.293676   -0.003560
  H     -0.826644    1.669100   -0.000999
  H     -0.078623    0.325162   -0.000507
  O     -0.109605   -1.590009    0.003874
  H      0.403405   -1.878302   -0.766481
  H      0.414439   -1.876030    0.767672

 Multiplicity           Mult            ....    1
 Number of Electrons    NEL             ....   20
 Basis Dimension        Dim             ....  184

ORBITAL ENERGIES
----------------

  NO   OCC          E(Eh)            E(eV)
   0   2.0000     -18.920405      -514.8504
   1   2.0000     -18.861604      -513.2503
   2   2.0000      -0.977478       -26.5985
   3   2.0000      -0.917589       -24.9689
   4   2.0000      -0.512370       -13.9423
   5   2.0000      -0.459225       -12.4961
   6   2.0000      -0.378153       -10.2901
   7   2.0000      -0.321965        -8.7611
   8   2.0000      -0.293392        -7.9836
   9   2.0000      -0.242154        -6.5894
  10   0.0000      -0.041327        -1.1246
  11   0.0000       0.000858         0.0234
  12   0.0000       0.012379         0.3368
  13   0.0000       0.043048         1.1714
  14   0.0000       0.064353         1.7511

MULLIKEN ATOMIC CHARGES
-----------------------
   0 O :   -0.416927
   1 H :    0.142817
   2 H :    0.276627
   3 O :   -0.350343
   4 H :    0.173930
   5 H :    0.173897
Sum of atomic charges:    0.0000000

LOEWDIN ATOMIC CHARGES
----------------------
   0 O :    1.023147
   1 H :   -0.511882
   2 H :   -0.673563
   3 O :    1.079510
   4 H :   -0.458656
   5 H :   -0.458556

  Mayer bond orders larger than 0.100000
B(  0-O ,  1-H ) :   1.0668 B(  0-O ,  2-H ) :   0.9059 B(  3-O ,  4-H ) :   1.0097
B(  3-O ,  5-H ) :   1.0098

Dispersion correction           -0.001670363
FINAL SINGLE POINT ENERGY      -152.942763273275

DIPOLE MOMENT
-------------
                                X             Y             Z
Electronic contribution:      0.01493      -0.00592       0.00085
Nuclear contribution   :      0.00113      -0.97170      -0.00079
                        -----------------------------------------
Total Dipole Moment    :      0.01606      -0.97762       0.00006
                        -----------------------------------------
Magnitude (a.u.)       :      0.97776
Magnitude (Debye)      :      2.48526

VIBRATIONAL FREQUENCIES
-----------------------

Scaling factor for frequencies =  1.000000000 (already applied!)

   0:         0.00 cm**-1
   1:         0.00 cm**-1
   2:         0.00 cm**-1
   3:         0.00 cm**-1
   4:         0.00 cm**-1
   5:         0.00 cm**-1
   6:       141.79 cm**-1
   7:       174.85 cm**-1
   8:       175.37 cm**-1
   9:       205.12 cm**-1
  10:       392.61 cm**-1
  11:       654.72 cm**-1
  12:      1630.57 cm**-1
  13:      1651.18 cm**-1
  14:      3529.82 cm**-1
  15:      3694.58 cm**-1
  16:      3769.23 cm**-1
  17:      3793.28 cm**-1

IR SPECTRUM
-----------

 Mode    freq (cm**-1)   T**2         TX         TY         TZ
-------------------------------------------------------------------
   6:       141.79  151.081784  ( -0.074496  -0.047315 -12.291216)
   7:       174.85   12.027790  ( -1.000974  -3.234540   0.750728)
   8:       175.37   11.580986  (  0.301729   1.063164   3.218638)
   9:       205.12  262.312675  ( -3.376732 -15.839581   0.134280)
  10:       392.61   39.378944  (  6.224395   0.796157  -0.044528)
  11:       654.72   78.039417  ( -0.001863  -0.005212  -8.833990)
  12:      1630.57   81.608239  (  8.392123  -3.343278  -0.054778)
  13:      1651.18   30.384543  ( -4.260910  -3.496980   0.017932)
  14:      3529.82  385.473209  (  1.543617 -19.572659   0.038514)
  15:      3694.58    5.671591  (  2.185429  -0.946300   0.002818)
  16:      3769.23   57.468113  (  2.901349  -7.003588   0.006098)
  17:      3793.28   63.638692  (  0.047495   0.014667   7.977231)

--------------------------
THERMOCHEMISTRY AT 298.15K
--------------------------

Temperature         ... 298.15 K
Pressure            ... 1.00 atm
Total Mass          ... 36.03 AMU

Throughout the following assumptions are being made:
  (1) The electronic state is orbitally nondegenerate
  (2) There are no thermally accessible electronically excited states
  (3) Hindered rotations indicated by low frequency modes are not
      treated as such but are treated as vibrations and this may
      cause some error
  (4) All equations used are the standard statistical mechanics
      equations for an ideal gas
  (5) All vibrations are strictly harmonic

freq.     141.79  E(vib)   ...       0.41
freq.     174.85  E(vib)   ...       0.38
freq.     175.37  E(vib)   ...       0.38
freq.     205.12  E(vib)   ...       0.35
freq.     392.61  E(vib)   ...       0.20
freq.     654.72  E(vib)   ...       0.08
freq.    1630.57  E(vib)   ...       0.00
freq.    1651.18  E(vib)   ...       0.00
freq.    3529.82  E(vib)   ...       0.00
freq.    3694.58  E(vib)   ...       0.00
freq.    3769.23  E(vib)   ...       0.00
freq.    3793.28  E(vib)   ...       0.00

------------
INNER ENERGY
------------

The inner energy is: U= E(el) + E(ZPE) + E(vib) + E(rot) + E(trans)
    E(el)   - is the total energy from the electronic structure calculation
              = E(kin-el) + E(nuc-el) + E(el-el) + E(nuc-nuc)
    E(ZPE)  - the the zero temperature vibrational energy from the frequency calculation
    E(vib)  - the the finite temperature correction to E(ZPE) due to population
              of excited vibrational states
    E(rot)  - is the rotational thermal energy
    E(trans)- is the translational thermal energy

Summary of contributions to the inner energy U:
Electronic energy                ...   -152.94276327 Eh
Zero point energy                ...      0.04513759 Eh      28.32 kcal/mol
Thermal vibrational correction   ...      0.00286646 Eh       1.80 kcal/mol
Thermal rotational correction    ...      0.00141627 Eh       0.89 kcal/mol
Thermal translational correction ...      0.00141627 Eh       0.89 kcal/mol
-----------------------------------------------------------------------
Total thermal energy                   -152.89192668 Eh

Summary of corrections to the electronic energy:
(perhaps to be used in another calculation)
Total thermal correction                  0.00569901 Eh       3.58 kcal/mol
Non-thermal (ZPE) correction              0.04513759 Eh      28.32 kcal/mol
-----------------------------------------------------------------------
Total correction                          0.05083659 Eh      31.90 kcal/mol

--------
ENTHALPY
--------

The enthalpy is H = U + kB*T
                kB is Boltzmann's constant
Total free energy                 ...   -152.89192668 Eh
Thermal Enthalpy correction       ...      0.00094421 Eh       0.59 kcal/mol
-----------------------------------------------------------------------
Total Enthalpy                    ...   -152.89098247 Eh

Note: Only C1 symmetry has been detected, increase convergence thresholds
      if your molecule has a higher symmetry. Symmetry factor of 1.0 is
      used for the rotational entropy correction.

Note: Rotational entropy computed according to Herzberg
Infrared and Raman Spectra, Chapter V,1, Van Nostrand Reinhold, 1945
Point Group:  C1, Symmetry Number:   1
Rotational constants in cm-1:     6.889494     0.218180     0.217970

Vibrational entropy computed according to the QRRHO of S. Grimme
Chem.Eur.J. 2012 18 9955

-------
ENTROPY
-------

The entropy contributions are T*S = T*(S(el)+S(vib)+S(rot)+S(trans))
     S(el)   - electronic entropy
     S(vib)  - vibrational entropy
     S(rot)  - rotational entropy
     S(trans)- translational entropy
The entropies will be listed as mutliplied by the temperature to get
units of energy

Electronic entropy                ...      0.00000000 Eh      0.00 kcal/mol
Vibrational entropy               ...      0.00519314 Eh      3.26 kcal/mol
Rotational entropy                ...      0.01003758 Eh      6.30 kcal/mol
Translational entropy             ...      0.01742549 Eh     10.93 kcal/mol
-----------------------------------------------------------------------
Final entropy term                ...      0.03265622 Eh     20.49 kcal/mol

In case the symmetry of your molecule has not been determined correctly
or in case you have a reason to use a different symmetry number we print
out the resulting rotational entropy values for sn=1,12 :
 --------------------------------------------------------
|  sn= 1 | S(rot)=       0.01003758 Eh      6.30 kcal/mol|
|  sn= 2 | S(rot)=       0.00938313 Eh      5.89 kcal/mol|
|  sn= 3 | S(rot)=       0.00900030 Eh      5.65 kcal/mol|
|  sn= 4 | S(rot)=       0.00872867 Eh      5.48 kcal/mol|
|  sn= 5 | S(rot)=       0.00851798 Eh      5.35 kcal/mol|
|  sn= 6 | S(rot)=       0.00834584 Eh      5.24 kcal/mol|
|  sn= 7 | S(rot)=       0.00820029 Eh      5.15 kcal/mol|
|  sn= 8 | S(rot)=       0.00807421 Eh      5.07 kcal/mol|
|  sn= 9 | S(rot)=       0.00796301 Eh      5.00 kcal/mol|
|  sn=10 | S(rot)=       0.00786353 Eh      4.93 kcal/mol|
|  sn=11 | S(rot)=       0.00777354 Eh      4.88 kcal/mol|
|  sn=12 | S(rot)=       0.00769138 Eh      4.83 kcal/mol|
 --------------------------------------------------------

-------------------
GIBBS FREE ENERGY
-------------------

The Gibbs free energy is G = H - T*S

Total enthalpy                    ...   -152.89098247 Eh
Total entropy correction          ...     -0.03265622 Eh    -20.49 kcal/mol
-----------------------------------------------------------------------
Final Gibbs free energy         ...   -152.92363869 Eh

For completeness - the Gibbs free energy minus the electronic energy
G-E(el)                           ...      0.01912459 Eh     12.00 kcal/mol

                             ****ORCA TERMINATED NORMALLY****
TOTAL RUN TIME: 0 days 0 hours 3 minutes 41 seconds 675 msec
