                         Program Version 4.2.0 -  RELEASE  -
|  1> #
|  2> # 03_H2O_3 tpss/aug-cc-pvt(+d)z
|  3> #
|  4> ! tpss d3bj aug-cc-pvt(+d)z def2/j grid4 nofinalgrid opt xyzfile numfreq
|  5>
|  6> *xyz 0 1
|  7> O	-1.476811	-0.647642	-0.082126
|  8> H	-0.613415	-1.087457	-0.037065
|  9> H	-2.026236	-1.086841	0.568502
| 10> O	1.305672	-0.945117	-0.091536
| 11> H	1.973931	-1.196903	0.547209
| 12> H	1.22684	0.019839	-0.021857
| 13> O	0.169678	1.599733	0.108456
| 14> H	-0.629586	1.051269	0.060063
| 15> H	0.080159	2.244313	-0.595195
| 16> *
| 17>
| 18> %maxcore 5000
| 19>
| 20> %pal
| 21> nprocs 24
| 22> end
| 23>
| 24>
| 25>                          ****END OF INPUT****
 Total Charge           Charge          ....    0
 Multiplicity           Mult            ....    1
 Number of Electrons    NEL             ....   30
Dispersion correction           -0.003853770
FINAL SINGLE POINT ENERGY      -229.426905753693
Dispersion correction            ... done
Dispersion correction           -0.003846999
FINAL SINGLE POINT ENERGY      -229.427589756228
Dispersion correction            ... done
Dispersion correction           -0.003878283
FINAL SINGLE POINT ENERGY      -229.427711654690
Dispersion correction            ... done
FINAL SINGLE POINT ENERGY      -229.427771453379
FINAL SINGLE POINT ENERGY      -229.427780554513
FINAL SINGLE POINT ENERGY      -229.427839095987
FINAL SINGLE POINT ENERGY      -229.427889130396
FINAL SINGLE POINT ENERGY      -229.427962826131
FINAL SINGLE POINT ENERGY      -229.428005782822
FINAL SINGLE POINT ENERGY      -229.428022397843
FINAL SINGLE POINT ENERGY      -229.428035940305
FINAL SINGLE POINT ENERGY      -229.428048723902
FINAL SINGLE POINT ENERGY      -229.428062243127
Dispersion correction            ... done
Dispersion correction           -0.003967814
FINAL SINGLE POINT ENERGY      -229.428072270468
Dispersion correction            ... done
Dispersion correction           -0.003969362
FINAL SINGLE POINT ENERGY      -229.428075772873
Dispersion correction            ... done
                    ***********************HURRAY********************

CARTESIAN COORDINATES (ANGSTROEM)
---------------------------------
  O     -1.449326   -0.654312   -0.124797
  H     -0.553718   -1.065062   -0.054865
  H     -1.960343   -1.013430    0.614305
  O      1.296710   -0.913271   -0.144902
  H      1.886904   -1.187091    0.571395
  H      1.172159    0.060566   -0.024942
  O      0.145266    1.572706    0.160567
  H     -0.644799    0.985900    0.064142
  H      0.117379    2.165189   -0.604451

 Multiplicity           Mult            ....    1
 Number of Electrons    NEL             ....   30
 Basis Dimension        Dim             ....  276

ORBITAL ENERGIES
----------------

  NO   OCC          E(Eh)            E(eV)
   0   2.0000     -18.891886      -514.0744
   1   2.0000     -18.890208      -514.0287
   2   2.0000     -18.889198      -514.0012
   3   2.0000      -0.958935       -26.0940
   4   2.0000      -0.941036       -25.6069
   5   2.0000      -0.939287       -25.5593
   6   2.0000      -0.505427       -13.7534
   7   2.0000      -0.477571       -12.9954
   8   2.0000      -0.474775       -12.9193
   9   2.0000      -0.364286        -9.9127
  10   2.0000      -0.358594        -9.7578
  11   2.0000      -0.331697        -9.0259
  12   2.0000      -0.280664        -7.6373
  13   2.0000      -0.271495        -7.3878
  14   2.0000      -0.267546        -7.2803
  15   0.0000      -0.033598        -0.9142
  16   0.0000      -0.003669        -0.0998
  17   0.0000      -0.002257        -0.0614
  18   0.0000       0.032418         0.8821
  19   0.0000       0.041930         1.1410

MULLIKEN ATOMIC CHARGES
-----------------------
   0 O :   -0.407259
   1 H :    0.273535
   2 H :    0.136398
   3 O :   -0.430701
   4 H :    0.136999
   5 H :    0.286497
   6 O :   -0.408842
   7 H :    0.288973
   8 H :    0.124399
Sum of atomic charges:    0.0000000

LOEWDIN ATOMIC CHARGES
----------------------
   0 O :    1.087185
   1 H :   -0.618178
   2 H :   -0.459324
   3 O :    1.083814
   4 H :   -0.462601
   5 H :   -0.629783
   6 O :    1.085097
   7 H :   -0.628659
   8 H :   -0.457550

  Mayer bond orders larger than 0.100000
B(  0-O ,  1-H ) :   0.8604 B(  0-O ,  2-H ) :   1.0507 B(  3-O ,  4-H ) :   1.0528
B(  3-O ,  5-H ) :   0.8388 B(  6-O ,  7-H ) :   0.8390 B(  6-O ,  8-H ) :   1.0606

Dispersion correction           -0.003970009
FINAL SINGLE POINT ENERGY      -229.428077071990

DIPOLE MOMENT
-------------
                                X             Y             Z
Electronic contribution:     -0.02396       0.01614      -0.19173
Nuclear contribution   :      0.02687      -0.05342       0.65244
                        -----------------------------------------
Total Dipole Moment    :      0.00291      -0.03727       0.46072
                        -----------------------------------------
Magnitude (a.u.)       :      0.46223
Magnitude (Debye)      :      1.17490

VIBRATIONAL FREQUENCIES
-----------------------

Scaling factor for frequencies =  1.000000000 (already applied!)

   0:         0.00 cm**-1
   1:         0.00 cm**-1
   2:         0.00 cm**-1
   3:         0.00 cm**-1
   4:         0.00 cm**-1
   5:         0.00 cm**-1
   6:       198.59 cm**-1
   7:       205.64 cm**-1
   8:       231.87 cm**-1
   9:       236.46 cm**-1
  10:       247.12 cm**-1
  11:       277.62 cm**-1
  12:       389.04 cm**-1
  13:       406.87 cm**-1
  14:       488.96 cm**-1
  15:       648.32 cm**-1
  16:       722.67 cm**-1
  17:       967.09 cm**-1
  18:      1636.91 cm**-1
  19:      1639.83 cm**-1
  20:      1659.64 cm**-1
  21:      3308.73 cm**-1
  22:      3397.04 cm**-1
  23:      3411.00 cm**-1
  24:      3761.45 cm**-1
  25:      3764.19 cm**-1
  26:      3767.33 cm**-1

IR SPECTRUM
-----------

 Mode    freq (cm**-1)   T**2         TX         TY         TZ
-------------------------------------------------------------------
   6:       198.59   23.557568  (  3.076108  -3.535128  -1.264121)
   7:       205.64   14.428633  (  2.779687   2.494620  -0.691986)
   8:       231.87   64.962543  ( -5.444172  -5.540166  -2.151765)
   9:       236.46   60.096340  ( -6.090707  -4.230812  -2.258287)
  10:       247.12   97.154405  (  5.032232  -6.882097  -4.946493)
  11:       277.62   61.617619  (  2.054381  -7.523272   0.893036)
  12:       389.04   77.218579  ( -6.054715   6.365808   0.188374)
  13:       406.87   19.230477  ( -4.289538  -0.146367   0.899400)
  14:       488.96  120.896723  (  6.332780   7.388411  -5.118985)
  15:       648.32  181.193727  ( 10.955031   7.390960   2.560222)
  16:       722.67  269.342969  (  9.555733 -10.021778  -8.808797)
  17:       967.09    7.020294  ( -0.520217  -1.176711   2.316251)
  18:      1636.91   41.632975  (  3.800287   5.107848   1.049133)
  19:      1639.83   86.953830  ( -4.693592   3.205313  -7.392563)
  20:      1659.64   10.643643  ( -0.477205   0.769795  -3.134220)
  21:      3308.73   17.139824  ( -3.910899   1.344065  -0.195406)
  22:      3397.04  738.697590  ( -0.277593 -27.176051   0.287678)
  23:      3411.00  687.696877  (-26.215409   0.286100   0.606114)
  24:      3761.45   65.577080  (  3.194992   6.160791  -4.172979)
  25:      3764.19   66.719775  (  7.362878  -3.534558   0.121298)
  26:      3767.33   27.586958  (  1.802686   2.978336  -3.932785)

--------------------------
THERMOCHEMISTRY AT 298.15K
--------------------------

Temperature         ... 298.15 K
Pressure            ... 1.00 atm
Total Mass          ... 54.05 AMU

Throughout the following assumptions are being made:
  (1) The electronic state is orbitally nondegenerate
  (2) There are no thermally accessible electronically excited states
  (3) Hindered rotations indicated by low frequency modes are not
      treated as such but are treated as vibrations and this may
      cause some error
  (4) All equations used are the standard statistical mechanics
      equations for an ideal gas
  (5) All vibrations are strictly harmonic

freq.     198.59  E(vib)   ...       0.35
freq.     205.64  E(vib)   ...       0.35
freq.     231.87  E(vib)   ...       0.32
freq.     236.46  E(vib)   ...       0.32
freq.     247.12  E(vib)   ...       0.31
freq.     277.62  E(vib)   ...       0.28
freq.     389.04  E(vib)   ...       0.20
freq.     406.87  E(vib)   ...       0.19
freq.     488.96  E(vib)   ...       0.15
freq.     648.32  E(vib)   ...       0.08
freq.     722.67  E(vib)   ...       0.07
freq.     967.09  E(vib)   ...       0.03
freq.    1636.91  E(vib)   ...       0.00
freq.    1639.83  E(vib)   ...       0.00
freq.    1659.64  E(vib)   ...       0.00
freq.    3308.73  E(vib)   ...       0.00
freq.    3397.04  E(vib)   ...       0.00
freq.    3411.00  E(vib)   ...       0.00
freq.    3761.45  E(vib)   ...       0.00
freq.    3764.19  E(vib)   ...       0.00
freq.    3767.33  E(vib)   ...       0.00

------------
INNER ENERGY
------------

The inner energy is: U= E(el) + E(ZPE) + E(vib) + E(rot) + E(trans)
    E(el)   - is the total energy from the electronic structure calculation
              = E(kin-el) + E(nuc-el) + E(el-el) + E(nuc-nuc)
    E(ZPE)  - the the zero temperature vibrational energy from the frequency calculation
    E(vib)  - the the finite temperature correction to E(ZPE) due to population
              of excited vibrational states
    E(rot)  - is the rotational thermal energy
    E(trans)- is the translational thermal energy

Summary of contributions to the inner energy U:
Electronic energy                ...   -229.42807708 Eh
Zero point energy                ...      0.07145782 Eh      44.84 kcal/mol
Thermal vibrational correction   ...      0.00421703 Eh       2.65 kcal/mol
Thermal rotational correction    ...      0.00141627 Eh       0.89 kcal/mol
Thermal translational correction ...      0.00141627 Eh       0.89 kcal/mol
-----------------------------------------------------------------------
Total thermal energy                   -229.34956969 Eh

Summary of corrections to the electronic energy:
(perhaps to be used in another calculation)
Total thermal correction                  0.00704957 Eh       4.42 kcal/mol
Non-thermal (ZPE) correction              0.07145782 Eh      44.84 kcal/mol
-----------------------------------------------------------------------
Total correction                          0.07850739 Eh      49.26 kcal/mol

--------
ENTHALPY
--------

The enthalpy is H = U + kB*T
                kB is Boltzmann's constant
Total free energy                 ...   -229.34956969 Eh
Thermal Enthalpy correction       ...      0.00094421 Eh       0.59 kcal/mol
-----------------------------------------------------------------------
Total Enthalpy                    ...   -229.34862548 Eh

Note: Only C1 symmetry has been detected, increase convergence thresholds
      if your molecule has a higher symmetry. Symmetry factor of 1.0 is
      used for the rotational entropy correction.

Note: Rotational entropy computed according to Herzberg
Infrared and Raman Spectra, Chapter V,1, Van Nostrand Reinhold, 1945
Point Group:  C1, Symmetry Number:   1
Rotational constants in cm-1:     0.237021     0.233690     0.120521

Vibrational entropy computed according to the QRRHO of S. Grimme
Chem.Eur.J. 2012 18 9955

-------
ENTROPY
-------

The entropy contributions are T*S = T*(S(el)+S(vib)+S(rot)+S(trans))
     S(el)   - electronic entropy
     S(vib)  - vibrational entropy
     S(rot)  - rotational entropy
     S(trans)- translational entropy
The entropies will be listed as mutliplied by the temperature to get
units of energy

Electronic entropy                ...      0.00000000 Eh      0.00 kcal/mol
Vibrational entropy               ...      0.00696561 Eh      4.37 kcal/mol
Rotational entropy                ...      0.01187565 Eh      7.45 kcal/mol
Translational entropy             ...      0.01799974 Eh     11.29 kcal/mol
-----------------------------------------------------------------------
Final entropy term                ...      0.03684100 Eh     23.12 kcal/mol

In case the symmetry of your molecule has not been determined correctly
or in case you have a reason to use a different symmetry number we print
out the resulting rotational entropy values for sn=1,12 :
 --------------------------------------------------------
|  sn= 1 | S(rot)=       0.01187565 Eh      7.45 kcal/mol|
|  sn= 2 | S(rot)=       0.01122120 Eh      7.04 kcal/mol|
|  sn= 3 | S(rot)=       0.01083837 Eh      6.80 kcal/mol|
|  sn= 4 | S(rot)=       0.01056674 Eh      6.63 kcal/mol|
|  sn= 5 | S(rot)=       0.01035605 Eh      6.50 kcal/mol|
|  sn= 6 | S(rot)=       0.01018391 Eh      6.39 kcal/mol|
|  sn= 7 | S(rot)=       0.01003836 Eh      6.30 kcal/mol|
|  sn= 8 | S(rot)=       0.00991229 Eh      6.22 kcal/mol|
|  sn= 9 | S(rot)=       0.00980108 Eh      6.15 kcal/mol|
|  sn=10 | S(rot)=       0.00970160 Eh      6.09 kcal/mol|
|  sn=11 | S(rot)=       0.00961161 Eh      6.03 kcal/mol|
|  sn=12 | S(rot)=       0.00952945 Eh      5.98 kcal/mol|
 --------------------------------------------------------

-------------------
GIBBS FREE ENERGY
-------------------

The Gibbs free energy is G = H - T*S

Total enthalpy                    ...   -229.34862548 Eh
Total entropy correction          ...     -0.03684100 Eh    -23.12 kcal/mol
-----------------------------------------------------------------------
Final Gibbs free energy         ...   -229.38546648 Eh

For completeness - the Gibbs free energy minus the electronic energy
G-E(el)                           ...      0.04261060 Eh     26.74 kcal/mol

                             ****ORCA TERMINATED NORMALLY****
TOTAL RUN TIME: 0 days 0 hours 3 minutes 3 seconds 260 msec
