                         Program Version 4.2.0 -  RELEASE  -
|  1> #
|  2> # 04_H2O_4 tpss/aug-cc-pvt(+d)z
|  3> #
|  4> ! tpss d3bj aug-cc-pvt(+d)z def2/j grid4 nofinalgrid opt xyzfile numfreq
|  5>
|  6> *xyz 0 1
|  7> O	1.372659		-1.372658	0.015734
|  8> H	0.406261		-1.511316	-0.008945
|  9> H	1.683553		-1.872433	0.772059
| 10> O	-1.372658		-1.372658	-0.015734
| 11> H	-1.511316		-0.406261	0.008945
| 12> H	-1.872433		-1.683553	-0.772059
| 13> O	-1.372658		1.372659	0.015734
| 14> H	-0.406261		1.511317	-0.008945
| 15> H	-1.683553		1.872433	0.772059
| 16> O	1.372659		1.372659	-0.015734
| 17> H	1.511317		0.406261	0.008945
| 18> H	1.872433		1.683553	-0.772059
| 19> *
| 20>
| 21> %maxcore 5000
| 22>
| 23> %pal
| 24> nprocs 24
| 25> end
| 26>
| 27>
| 28>                          ****END OF INPUT****
 Total Charge           Charge          ....    0
 Multiplicity           Mult            ....    1
 Number of Electrons    NEL             ....   40
Dispersion correction           -0.005922130
FINAL SINGLE POINT ENERGY      -305.915062081620
Dispersion correction            ... done
Dispersion correction           -0.005910951
FINAL SINGLE POINT ENERGY      -305.916153559566
Dispersion correction            ... done
Dispersion correction           -0.005984549
FINAL SINGLE POINT ENERGY      -305.916448156448
Dispersion correction            ... done
FINAL SINGLE POINT ENERGY      -305.916577223802
FINAL SINGLE POINT ENERGY      -305.916586088323
FINAL SINGLE POINT ENERGY      -305.916611770573
FINAL SINGLE POINT ENERGY      -305.916622819631
FINAL SINGLE POINT ENERGY      -305.916629228640
FINAL SINGLE POINT ENERGY      -305.916629687056
Dispersion correction            ... done
Dispersion correction           -0.006124240
FINAL SINGLE POINT ENERGY      -305.916556462084
Dispersion correction            ... done
Dispersion correction           -0.006126733
FINAL SINGLE POINT ENERGY      -305.916519951606
Dispersion correction            ... done
                    ***********************HURRAY********************

CARTESIAN COORDINATES (ANGSTROEM)
---------------------------------
  O      1.339755   -1.345405   -0.152383
  H      0.351230   -1.463391   -0.068754
  H      1.719841   -1.869738    0.566860
  O     -1.345405   -1.339754    0.152383
  H     -1.463390   -0.351229    0.068753
  H     -1.869737   -1.719840   -0.566860
  O     -1.339754    1.345406   -0.152383
  H     -0.351229    1.463390   -0.068753
  H     -1.719841    1.869740    0.566859
  O      1.345405    1.339754    0.152383
  H      1.463391    0.351229    0.068754
  H      1.869737    1.719841   -0.566860

 Multiplicity           Mult            ....    1
 Number of Electrons    NEL             ....   40
 Basis Dimension        Dim             ....  368

ORBITAL ENERGIES
----------------

  NO   OCC          E(Eh)            E(eV)
   0   2.0000     -18.886561      -513.9295
   1   2.0000     -18.886558      -513.9294
   2   2.0000     -18.886558      -513.9294
   3   2.0000     -18.886554      -513.9293
   4   2.0000      -0.957153       -26.0454
   5   2.0000      -0.942295       -25.6411
   6   2.0000      -0.942295       -25.6411
   7   2.0000      -0.927776       -25.2461
   8   2.0000      -0.494767       -13.4633
   9   2.0000      -0.481055       -13.0902
  10   2.0000      -0.481055       -13.0902
  11   2.0000      -0.472848       -12.8668
  12   2.0000      -0.385180       -10.4813
  13   2.0000      -0.351904        -9.5758
  14   2.0000      -0.351904        -9.5758
  15   2.0000      -0.317503        -8.6397
  16   2.0000      -0.273147        -7.4327
  17   2.0000      -0.270719        -7.3666
  18   2.0000      -0.270719        -7.3666
  19   2.0000      -0.269915        -7.3448
  20   0.0000      -0.032505        -0.8845
  21   0.0000      -0.005780        -0.1573
  22   0.0000      -0.005780        -0.1573
  23   0.0000       0.009396         0.2557
  24   0.0000       0.036176         0.9844

MULLIKEN ATOMIC CHARGES
-----------------------
   0 O :   -0.376095
   1 H :    0.264747
   2 H :    0.111348
   3 O :   -0.376096
   4 H :    0.264747
   5 H :    0.111348
   6 O :   -0.376094
   7 H :    0.264746
   8 H :    0.111348
   9 O :   -0.376095
  10 H :    0.264747
  11 H :    0.111348
Sum of atomic charges:   -0.0000000

LOEWDIN ATOMIC CHARGES
----------------------
   0 O :    1.102688
   1 H :   -0.656922
   2 H :   -0.445766
   3 O :    1.102688
   4 H :   -0.656922
   5 H :   -0.445766
   6 O :    1.102688
   7 H :   -0.656922
   8 H :   -0.445766
   9 O :    1.102688
  10 H :   -0.656922
  11 H :   -0.445766

  Mayer bond orders larger than 0.100000
B(  0-O ,  1-H ) :   0.8211 B(  0-O ,  2-H ) :   1.0703 B(  0-O , 10-H ) :   0.1190
B(  1-H ,  3-O ) :   0.1190 B(  3-O ,  4-H ) :   0.8211 B(  3-O ,  5-H ) :   1.0703
B(  4-H ,  6-O ) :   0.1190 B(  6-O ,  7-H ) :   0.8212 B(  6-O ,  8-H ) :   1.0703
B(  7-H ,  9-O ) :   0.1190 B(  9-O , 10-H ) :   0.8211 B(  9-O , 11-H ) :   1.0703

Dispersion correction           -0.006126533
FINAL SINGLE POINT ENERGY      -305.916517571211

DIPOLE MOMENT
-------------
                                X             Y             Z
Electronic contribution:     -0.00000      -0.00000       0.00000
Nuclear contribution   :      0.00000       0.00000      -0.00000
                        -----------------------------------------
Total Dipole Moment    :      0.00000       0.00000      -0.00000
                        -----------------------------------------
Magnitude (a.u.)       :      0.00000
Magnitude (Debye)      :      0.00000

VIBRATIONAL FREQUENCIES
-----------------------

Scaling factor for frequencies =  1.000000000 (already applied!)

   0:         0.00 cm**-1
   1:         0.00 cm**-1
   2:         0.00 cm**-1
   3:         0.00 cm**-1
   4:         0.00 cm**-1
   5:         0.00 cm**-1
   6:        53.21 cm**-1
   7:        94.67 cm**-1
   8:       228.35 cm**-1
   9:       269.69 cm**-1
  10:       273.68 cm**-1
  11:       273.68 cm**-1
  12:       287.21 cm**-1
  13:       303.04 cm**-1
  14:       303.07 cm**-1
  15:       338.80 cm**-1
  16:       453.59 cm**-1
  17:       480.29 cm**-1
  18:       499.05 cm**-1
  19:       499.05 cm**-1
  20:       818.68 cm**-1
  21:       903.62 cm**-1
  22:       903.63 cm**-1
  23:      1073.56 cm**-1
  24:      1638.08 cm**-1
  25:      1656.98 cm**-1
  26:      1656.99 cm**-1
  27:      1692.90 cm**-1
  28:      3064.98 cm**-1
  29:      3204.32 cm**-1
  30:      3204.32 cm**-1
  31:      3255.36 cm**-1
  32:      3761.52 cm**-1
  33:      3761.54 cm**-1
  34:      3761.54 cm**-1
  35:      3761.86 cm**-1

IR SPECTRUM
-----------

 Mode    freq (cm**-1)   T**2         TX         TY         TZ
-------------------------------------------------------------------
   6:        53.21    0.000000  (  0.000578   0.000321  -0.000044)
   7:        94.67    3.179964  ( -0.000016   0.000020   1.783245)
   8:       228.35    0.000003  (  0.000768   0.001678  -0.000133)
   9:       269.69   41.477302  ( -0.000106  -0.001360   6.440287)
  10:       273.68   21.469709  (  3.481260  -3.057864   0.002075)
  11:       273.68   21.465463  (  3.059784   3.478956   0.006911)
  12:       287.21    5.980462  ( -0.000755  -0.006504  -2.445490)
  13:       303.04  219.837423  ( -2.024632 -14.688032   0.002039)
  14:       303.07  219.808010  (-14.687000   2.024856   0.001610)
  15:       338.80    0.000020  (  0.002807   0.003231  -0.001114)
  16:       453.59    0.000003  (  0.001643   0.000016   0.000000)
  17:       480.29    7.180790  (  0.001969   0.002368   2.679698)
  18:       499.05   37.233270  (  3.213062   5.187437  -0.001219)
  19:       499.05   37.231321  ( -5.187446   3.212745   0.000571)
  20:       818.68  156.089483  ( -0.000583  -0.000837  12.493578)
  21:       903.62  130.467543  (  9.113239  -6.885958   0.000129)
  22:       903.63  130.465864  (  6.886099   9.113040   0.000932)
  23:      1073.56    0.000000  (  0.000212  -0.000175  -0.000125)
  24:      1638.08   81.697843  ( -0.000057  -0.000631   9.038686)
  25:      1656.98   42.600757  (  3.560705   5.470113   0.000671)
  26:      1656.99   42.598005  (  5.469979  -3.560525  -0.000195)
  27:      1692.90    0.000000  (  0.000330  -0.000132   0.000293)
  28:      3064.98    0.000000  ( -0.000417   0.000310   0.000153)
  29:      3204.32  1836.334205  (-37.208189  21.257584   0.000013)
  30:      3204.32  1836.336513  (-21.257645 -37.208185   0.000036)
  31:      3255.36    0.004114  (  0.000752   0.001147   0.064124)
  32:      3761.52   42.182964  (  0.247054   0.511786  -6.469931)
  33:      3761.54   67.310952  (  4.442217  -6.893662  -0.234705)
  34:      3761.54   67.255760  ( -6.895565  -4.422698  -0.383001)
  35:      3761.86    0.000346  ( -0.009879   0.012194  -0.009963)

--------------------------
THERMOCHEMISTRY AT 298.15K
--------------------------

Temperature         ... 298.15 K
Pressure            ... 1.00 atm
Total Mass          ... 72.06 AMU

Throughout the following assumptions are being made:
  (1) The electronic state is orbitally nondegenerate
  (2) There are no thermally accessible electronically excited states
  (3) Hindered rotations indicated by low frequency modes are not
      treated as such but are treated as vibrations and this may
      cause some error
  (4) All equations used are the standard statistical mechanics
      equations for an ideal gas
  (5) All vibrations are strictly harmonic

freq.      53.21  E(vib)   ...       0.52
freq.      94.67  E(vib)   ...       0.47
freq.     228.35  E(vib)   ...       0.32
freq.     269.69  E(vib)   ...       0.29
freq.     273.68  E(vib)   ...       0.28
freq.     273.68  E(vib)   ...       0.28
freq.     287.21  E(vib)   ...       0.27
freq.     303.04  E(vib)   ...       0.26
freq.     303.07  E(vib)   ...       0.26
freq.     338.80  E(vib)   ...       0.23
freq.     453.59  E(vib)   ...       0.16
freq.     480.29  E(vib)   ...       0.15
freq.     499.05  E(vib)   ...       0.14
freq.     499.05  E(vib)   ...       0.14
freq.     818.68  E(vib)   ...       0.05
freq.     903.62  E(vib)   ...       0.03
freq.     903.63  E(vib)   ...       0.03
freq.    1073.56  E(vib)   ...       0.02
freq.    1638.08  E(vib)   ...       0.00
freq.    1656.98  E(vib)   ...       0.00
freq.    1656.99  E(vib)   ...       0.00
freq.    1692.90  E(vib)   ...       0.00
freq.    3064.98  E(vib)   ...       0.00
freq.    3204.32  E(vib)   ...       0.00
freq.    3204.32  E(vib)   ...       0.00
freq.    3255.36  E(vib)   ...       0.00
freq.    3761.52  E(vib)   ...       0.00
freq.    3761.54  E(vib)   ...       0.00
freq.    3761.54  E(vib)   ...       0.00
freq.    3761.86  E(vib)   ...       0.00

------------
INNER ENERGY
------------

The inner energy is: U= E(el) + E(ZPE) + E(vib) + E(rot) + E(trans)
    E(el)   - is the total energy from the electronic structure calculation
              = E(kin-el) + E(nuc-el) + E(el-el) + E(nuc-nuc)
    E(ZPE)  - the the zero temperature vibrational energy from the frequency calculation
    E(vib)  - the the finite temperature correction to E(ZPE) due to population
              of excited vibrational states
    E(rot)  - is the rotational thermal energy
    E(trans)- is the translational thermal energy

Summary of contributions to the inner energy U:
Electronic energy                ...   -305.91651757 Eh
Zero point energy                ...      0.09677030 Eh      60.72 kcal/mol
Thermal vibrational correction   ...      0.00626843 Eh       3.93 kcal/mol
Thermal rotational correction    ...      0.00141627 Eh       0.89 kcal/mol
Thermal translational correction ...      0.00141627 Eh       0.89 kcal/mol
-----------------------------------------------------------------------
Total thermal energy                   -305.81064630 Eh

Summary of corrections to the electronic energy:
(perhaps to be used in another calculation)
Total thermal correction                  0.00910097 Eh       5.71 kcal/mol
Non-thermal (ZPE) correction              0.09677030 Eh      60.72 kcal/mol
-----------------------------------------------------------------------
Total correction                          0.10587127 Eh      66.44 kcal/mol

--------
ENTHALPY
--------

The enthalpy is H = U + kB*T
                kB is Boltzmann's constant
Total free energy                 ...   -305.81064630 Eh
Thermal Enthalpy correction       ...      0.00094421 Eh       0.59 kcal/mol
-----------------------------------------------------------------------
Total Enthalpy                    ...   -305.80970209 Eh

Note: Only C1 symmetry has been detected, increase convergence thresholds
      if your molecule has a higher symmetry. Symmetry factor of 1.0 is
      used for the rotational entropy correction.

Note: Rotational entropy computed according to Herzberg
Infrared and Raman Spectra, Chapter V,1, Van Nostrand Reinhold, 1945
Point Group:  C1, Symmetry Number:   1
Rotational constants in cm-1:     0.124198     0.124198     0.063407

Vibrational entropy computed according to the QRRHO of S. Grimme
Chem.Eur.J. 2012 18 9955

-------
ENTROPY
-------

The entropy contributions are T*S = T*(S(el)+S(vib)+S(rot)+S(trans))
     S(el)   - electronic entropy
     S(vib)  - vibrational entropy
     S(rot)  - rotational entropy
     S(trans)- translational entropy
The entropies will be listed as mutliplied by the temperature to get
units of energy

Electronic entropy                ...      0.00000000 Eh      0.00 kcal/mol
Vibrational entropy               ...      0.01061130 Eh      6.66 kcal/mol
Rotational entropy                ...      0.01278237 Eh      8.02 kcal/mol
Translational entropy             ...      0.01840717 Eh     11.55 kcal/mol
-----------------------------------------------------------------------
Final entropy term                ...      0.04180084 Eh     26.23 kcal/mol

In case the symmetry of your molecule has not been determined correctly
or in case you have a reason to use a different symmetry number we print
out the resulting rotational entropy values for sn=1,12 :
 --------------------------------------------------------
|  sn= 1 | S(rot)=       0.01278237 Eh      8.02 kcal/mol|
|  sn= 2 | S(rot)=       0.01212791 Eh      7.61 kcal/mol|
|  sn= 3 | S(rot)=       0.01174508 Eh      7.37 kcal/mol|
|  sn= 4 | S(rot)=       0.01147345 Eh      7.20 kcal/mol|
|  sn= 5 | S(rot)=       0.01126277 Eh      7.07 kcal/mol|
|  sn= 6 | S(rot)=       0.01109062 Eh      6.96 kcal/mol|
|  sn= 7 | S(rot)=       0.01094507 Eh      6.87 kcal/mol|
|  sn= 8 | S(rot)=       0.01081900 Eh      6.79 kcal/mol|
|  sn= 9 | S(rot)=       0.01070779 Eh      6.72 kcal/mol|
|  sn=10 | S(rot)=       0.01060831 Eh      6.66 kcal/mol|
|  sn=11 | S(rot)=       0.01051832 Eh      6.60 kcal/mol|
|  sn=12 | S(rot)=       0.01043616 Eh      6.55 kcal/mol|
 --------------------------------------------------------

-------------------
GIBBS FREE ENERGY
-------------------

The Gibbs free energy is G = H - T*S

Total enthalpy                    ...   -305.80970209 Eh
Total entropy correction          ...     -0.04180084 Eh    -26.23 kcal/mol
-----------------------------------------------------------------------
Final Gibbs free energy         ...   -305.85150292 Eh

For completeness - the Gibbs free energy minus the electronic energy
G-E(el)                           ...      0.06501465 Eh     40.80 kcal/mol

                             ****ORCA TERMINATED NORMALLY****
TOTAL RUN TIME: 0 days 0 hours 4 minutes 38 seconds 688 msec
