                         Program Version 4.2.0 -  RELEASE  -
|  1> #
|  2> # 05_H2O_5 tpss/aug-cc-pvt(+d)z
|  3> #
|  4> ! tpss d3bj aug-cc-pvt(+d)z def2/j grid4 nofinalgrid opt xyzfile numfreq
|  5>
|  6> *xyz 0 1
|  7> O	2.312927	0.150318	0.177415
|  8> O	0.864769	-2.137443	-0.15942
|  9> O	-1.781315	-1.498466	0.059758
| 10> O	-1.961951	1.234812	-0.062774
| 11> O	0.577396	2.241432	-0.075822
| 12> H	1.836849	-0.694236	0.04925
| 13> H	-0.089971	-1.943593	-0.076678
| 14> H	-1.915322	-0.530797	0.048103
| 15> H	-1.066728	1.628166	-0.074484
| 16> H	1.229463	1.522335	0.042111
| 17> H	2.825562	0.034681	0.978576
| 18> H	0.953988	-2.623745	-0.980296
| 19> H	-2.260123	-1.814802	0.826889
| 20> H	-2.472247	1.784461	0.533098
| 21> H	0.863928	2.71231	-0.859811
| 22> *
| 23>
| 24> %maxcore 5000
| 25>
| 26> %pal
| 27> nprocs 24
| 28> end
| 29>
| 30>
| 31>                          ****END OF INPUT****
 Total Charge           Charge          ....    0
 Multiplicity           Mult            ....    1
 Number of Electrons    NEL             ....   50
Dispersion correction           -0.007393060
FINAL SINGLE POINT ENERGY      -382.397146742765
Dispersion correction            ... done
Dispersion correction           -0.007404905
FINAL SINGLE POINT ENERGY      -382.398672002075
Dispersion correction            ... done
Dispersion correction           -0.007535402
FINAL SINGLE POINT ENERGY      -382.399100820046
Dispersion correction            ... done
FINAL SINGLE POINT ENERGY      -382.399151441409
FINAL SINGLE POINT ENERGY      -382.399096385631
FINAL SINGLE POINT ENERGY      -382.399042632723
FINAL SINGLE POINT ENERGY      -382.398960103970
FINAL SINGLE POINT ENERGY      -382.398811165720
FINAL SINGLE POINT ENERGY      -382.398782328767
FINAL SINGLE POINT ENERGY      -382.398761981573
FINAL SINGLE POINT ENERGY      -382.398763429068
FINAL SINGLE POINT ENERGY      -382.398769424339
FINAL SINGLE POINT ENERGY      -382.398782208007
FINAL SINGLE POINT ENERGY      -382.398785595805
FINAL SINGLE POINT ENERGY      -382.398768613626
FINAL SINGLE POINT ENERGY      -382.398724592961
Dispersion correction            ... done
Dispersion correction           -0.007744881
FINAL SINGLE POINT ENERGY      -382.398714878856
Dispersion correction            ... done
Dispersion correction           -0.007744997
FINAL SINGLE POINT ENERGY      -382.398713640953
Dispersion correction            ... done
                    ***********************HURRAY********************

CARTESIAN COORDINATES (ANGSTROEM)
---------------------------------
  O      2.220864    0.161222   -0.244236
  O      0.840898   -2.112415    0.076627
  O     -1.762604   -1.474532    0.087266
  O     -1.852882    1.168105   -0.392576
  O      0.526447    2.140676    0.390692
  H      1.726646   -0.705520   -0.149816
  H     -0.136619   -1.894524    0.099562
  H     -1.848917   -0.489444   -0.066347
  H     -0.982861    1.571862   -0.104139
  H      1.188597    1.418470    0.178902
  H      2.978780    0.081393    0.352100
  H      0.937532   -2.746342   -0.648070
  H     -2.190153   -1.640866    0.939089
  H     -2.537649    1.689563    0.048802
  H      0.809147    2.897784   -0.141943

 Multiplicity           Mult            ....    1
 Number of Electrons    NEL             ....   50
 Basis Dimension        Dim             ....  460

ORBITAL ENERGIES
----------------

  NO   OCC          E(Eh)            E(eV)
   0   2.0000     -18.884213      -513.8656
   1   2.0000     -18.883769      -513.8535
   2   2.0000     -18.883684      -513.8512
   3   2.0000     -18.883160      -513.8369
   4   2.0000     -18.883017      -513.8330
   5   2.0000      -0.954377       -25.9699
   6   2.0000      -0.944439       -25.6995
   7   2.0000      -0.943994       -25.6874
   8   2.0000      -0.927478       -25.2380
   9   2.0000      -0.926778       -25.2189
  10   2.0000      -0.487108       -13.2549
  11   2.0000      -0.481196       -13.0940
  12   2.0000      -0.479735       -13.0543
  13   2.0000      -0.476514       -12.9666
  14   2.0000      -0.475481       -12.9385
  15   2.0000      -0.381661       -10.3855
  16   2.0000      -0.377555       -10.2738
  17   2.0000      -0.340855        -9.2751
  18   2.0000      -0.338646        -9.2150
  19   2.0000      -0.311847        -8.4858
  20   2.0000      -0.272399        -7.4124
  21   2.0000      -0.269548        -7.3348
  22   2.0000      -0.267917        -7.2904
  23   2.0000      -0.266632        -7.2554
  24   2.0000      -0.264385        -7.1943
  25   0.0000      -0.033982        -0.9247
  26   0.0000      -0.012632        -0.3437
  27   0.0000      -0.010395        -0.2829
  28   0.0000       0.010141         0.2760
  29   0.0000       0.013676         0.3721

MULLIKEN ATOMIC CHARGES
-----------------------
   0 O :   -0.357317
   1 O :   -0.354699
   2 O :   -0.354932
   3 O :   -0.371937
   4 O :   -0.356983
   5 H :    0.248147
   6 H :    0.254411
   7 H :    0.233482
   8 H :    0.248746
   9 H :    0.249867
  10 H :    0.108661
  11 H :    0.109737
  12 H :    0.120352
  13 H :    0.113318
  14 H :    0.109148
Sum of atomic charges:    0.0000000

LOEWDIN ATOMIC CHARGES
----------------------
   0 O :    1.108813
   1 O :    1.110418
   2 O :    1.111688
   3 O :    1.109720
   4 O :    1.105301
   5 H :   -0.668679
   6 H :   -0.667222
   7 H :   -0.663896
   8 H :   -0.665152
   9 H :   -0.668161
  10 H :   -0.442098
  11 H :   -0.440330
  12 H :   -0.442792
  13 H :   -0.444393
  14 H :   -0.443217

  Mayer bond orders larger than 0.100000
B(  0-O ,  5-H ) :   0.8348 B(  0-O ,  9-H ) :   0.1450 B(  0-O , 10-H ) :   1.0710
B(  1-O ,  5-H ) :   0.1437 B(  1-O ,  6-H ) :   0.8361 B(  1-O , 11-H ) :   1.0702
B(  2-O ,  6-H ) :   0.1339 B(  2-O ,  7-H ) :   0.8607 B(  2-O , 12-H ) :   1.0541
B(  3-O ,  7-H ) :   0.1431 B(  3-O ,  8-H ) :   0.8361 B(  3-O , 13-H ) :   1.0784
B(  4-O ,  8-H ) :   0.1440 B(  4-O ,  9-H ) :   0.8325 B(  4-O , 14-H ) :   1.0707

Dispersion correction           -0.007743861
FINAL SINGLE POINT ENERGY      -382.398720745605

DIPOLE MOMENT
-------------
                                X             Y             Z
Electronic contribution:     -0.00448      -0.11823      -0.17425
Nuclear contribution   :     -0.00079       0.34648       0.55984
                        -----------------------------------------
Total Dipole Moment    :     -0.00526       0.22825       0.38559
                        -----------------------------------------
Magnitude (a.u.)       :      0.44811
Magnitude (Debye)      :      1.13901

VIBRATIONAL FREQUENCIES
-----------------------

Scaling factor for frequencies =  1.000000000 (already applied!)

   0:         0.00 cm**-1
   1:         0.00 cm**-1
   2:         0.00 cm**-1
   3:         0.00 cm**-1
   4:         0.00 cm**-1
   5:         0.00 cm**-1
   6:        16.77 cm**-1
   7:        37.90 cm**-1
   8:        70.35 cm**-1
   9:        78.72 cm**-1
  10:       202.54 cm**-1
  11:       239.03 cm**-1
  12:       262.46 cm**-1
  13:       265.45 cm**-1
  14:       273.13 cm**-1
  15:       275.62 cm**-1
  16:       308.55 cm**-1
  17:       330.63 cm**-1
  18:       336.08 cm**-1
  19:       340.96 cm**-1
  20:       458.74 cm**-1
  21:       485.85 cm**-1
  22:       493.28 cm**-1
  23:       502.16 cm**-1
  24:       551.90 cm**-1
  25:       790.17 cm**-1
  26:       883.72 cm**-1
  27:       943.78 cm**-1
  28:       956.32 cm**-1
  29:      1052.62 cm**-1
  30:      1638.52 cm**-1
  31:      1657.01 cm**-1
  32:      1661.33 cm**-1
  33:      1688.92 cm**-1
  34:      1700.37 cm**-1
  35:      3002.08 cm**-1
  36:      3130.15 cm**-1
  37:      3136.54 cm**-1
  38:      3200.07 cm**-1
  39:      3211.77 cm**-1
  40:      3756.77 cm**-1
  41:      3758.27 cm**-1
  42:      3760.38 cm**-1
  43:      3763.06 cm**-1
  44:      3768.22 cm**-1

IR SPECTRUM
-----------

 Mode    freq (cm**-1)   T**2         TX         TY         TZ
-------------------------------------------------------------------
   6:        16.77    3.638555  ( -0.269254  -1.887660   0.052903)
   7:        37.90    0.697439  ( -0.326318   0.737078  -0.218338)
   8:        70.35    7.443650  (  0.252745   0.222846   2.707418)
   9:        78.72    0.981236  (  0.300758  -0.192335  -0.924006)
  10:       202.54    0.152166  (  0.359636   0.150111  -0.017160)
  11:       239.03   68.855922  (  4.627715  -1.181873   6.785525)
  12:       262.46   43.708647  (  0.801705   4.093491  -5.129254)
  13:       265.45    9.640069  ( -0.981492   2.823693   0.838750)
  14:       273.13  161.664242  ( 12.340576  -2.899769   0.982733)
  15:       275.62   67.161057  (  1.722913  -5.026437  -6.239195)
  16:       308.55  206.146670  ( -8.674767 -11.412440   0.807039)
  17:       330.63    5.624447  (  0.034615   0.274316   2.355419)
  18:       336.08   25.745187  ( -2.728695   4.124970   1.133151)
  19:       340.96   33.132324  ( -2.265077   5.000001  -1.732552)
  20:       458.74   28.771181  ( -4.808643   2.109662  -1.094283)
  21:       485.85   25.567874  (  4.051811  -0.847182   2.903960)
  22:       493.28   21.436984  (  3.768980  -1.670782   2.107192)
  23:       502.16   43.676690  ( -2.105836   6.117605   1.347981)
  24:       551.90   64.195617  (  4.428135   5.391975  -3.938762)
  25:       790.17   20.483584  ( -3.616703  -2.395101  -1.290942)
  26:       883.72  194.869156  (  0.538446   1.589348 -13.858326)
  27:       943.78   67.855768  ( -2.090494   7.597808  -2.399774)
  28:       956.32   77.999056  (  7.784173   2.893508   3.005549)
  29:      1052.62    8.146435  ( -0.422896  -2.310158  -1.621963)
  30:      1638.52   72.233768  (  0.858687   1.166573   8.374696)
  31:      1657.01   27.630528  (  3.449956   3.835288  -1.009406)
  32:      1661.33   69.054711  ( -3.782053   7.032477   2.301099)
  33:      1688.92   28.226606  (  5.121978   1.411345   0.007433)
  34:      1700.37    2.451139  (  0.898884  -1.268840   0.182188)
  35:      3002.08   24.018244  (  0.046920  -4.899879  -0.085037)
  36:      3130.15  2751.650008  (-51.802053   8.240139   0.545381)
  37:      3136.54  2674.077148  (  8.348944  51.027814   0.731064)
  38:      3200.07   22.163942  ( -2.360246   0.735740  -4.006478)
  39:      3211.77  101.106886  ( -0.632640  -4.801295   8.812163)
  40:      3756.77   40.513837  (  0.113567  -6.124843   1.728362)
  41:      3758.27   45.473382  ( -4.719306  -2.270568  -4.248065)
  42:      3760.38   44.230195  ( -4.909948   1.777831   4.118485)
  43:      3763.06   45.296977  ( -0.808728   6.062319  -2.809133)
  44:      3768.22   43.308818  (  6.281288  -0.213206  -1.951610)

--------------------------
THERMOCHEMISTRY AT 298.15K
--------------------------

Temperature         ... 298.15 K
Pressure            ... 1.00 atm
Total Mass          ... 90.07 AMU

Throughout the following assumptions are being made:
  (1) The electronic state is orbitally nondegenerate
  (2) There are no thermally accessible electronically excited states
  (3) Hindered rotations indicated by low frequency modes are not
      treated as such but are treated as vibrations and this may
      cause some error
  (4) All equations used are the standard statistical mechanics
      equations for an ideal gas
  (5) All vibrations are strictly harmonic

freq.      16.77  E(vib)   ...       0.57
freq.      37.90  E(vib)   ...       0.54
freq.      70.35  E(vib)   ...       0.50
freq.      78.72  E(vib)   ...       0.49
freq.     202.54  E(vib)   ...       0.35
freq.     239.03  E(vib)   ...       0.32
freq.     262.46  E(vib)   ...       0.29
freq.     265.45  E(vib)   ...       0.29
freq.     273.13  E(vib)   ...       0.29
freq.     275.62  E(vib)   ...       0.28
freq.     308.55  E(vib)   ...       0.26
freq.     330.63  E(vib)   ...       0.24
freq.     336.08  E(vib)   ...       0.24
freq.     340.96  E(vib)   ...       0.23
freq.     458.74  E(vib)   ...       0.16
freq.     485.85  E(vib)   ...       0.15
freq.     493.28  E(vib)   ...       0.14
freq.     502.16  E(vib)   ...       0.14
freq.     551.90  E(vib)   ...       0.12
freq.     790.17  E(vib)   ...       0.05
freq.     883.72  E(vib)   ...       0.04
freq.     943.78  E(vib)   ...       0.03
freq.     956.32  E(vib)   ...       0.03
freq.    1052.62  E(vib)   ...       0.02
freq.    1638.52  E(vib)   ...       0.00
freq.    1657.01  E(vib)   ...       0.00
freq.    1661.33  E(vib)   ...       0.00
freq.    1688.92  E(vib)   ...       0.00
freq.    1700.37  E(vib)   ...       0.00
freq.    3002.08  E(vib)   ...       0.00
freq.    3130.15  E(vib)   ...       0.00
freq.    3136.54  E(vib)   ...       0.00
freq.    3200.07  E(vib)   ...       0.00
freq.    3211.77  E(vib)   ...       0.00
freq.    3756.77  E(vib)   ...       0.00
freq.    3758.27  E(vib)   ...       0.00
freq.    3760.38  E(vib)   ...       0.00
freq.    3763.06  E(vib)   ...       0.00
freq.    3768.22  E(vib)   ...       0.00

------------
INNER ENERGY
------------

The inner energy is: U= E(el) + E(ZPE) + E(vib) + E(rot) + E(trans)
    E(el)   - is the total energy from the electronic structure calculation
              = E(kin-el) + E(nuc-el) + E(el-el) + E(nuc-nuc)
    E(ZPE)  - the the zero temperature vibrational energy from the frequency calculation
    E(vib)  - the the finite temperature correction to E(ZPE) due to population
              of excited vibrational states
    E(rot)  - is the rotational thermal energy
    E(trans)- is the translational thermal energy

Summary of contributions to the inner energy U:
Electronic energy                ...   -382.39872075 Eh
Zero point energy                ...      0.12072051 Eh      75.75 kcal/mol
Thermal vibrational correction   ...      0.00917881 Eh       5.76 kcal/mol
Thermal rotational correction    ...      0.00141627 Eh       0.89 kcal/mol
Thermal translational correction ...      0.00141627 Eh       0.89 kcal/mol
-----------------------------------------------------------------------
Total thermal energy                   -382.26598889 Eh

Summary of corrections to the electronic energy:
(perhaps to be used in another calculation)
Total thermal correction                  0.01201135 Eh       7.54 kcal/mol
Non-thermal (ZPE) correction              0.12072051 Eh      75.75 kcal/mol
-----------------------------------------------------------------------
Total correction                          0.13273186 Eh      83.29 kcal/mol

--------
ENTHALPY
--------

The enthalpy is H = U + kB*T
                kB is Boltzmann's constant
Total free energy                 ...   -382.26598889 Eh
Thermal Enthalpy correction       ...      0.00094421 Eh       0.59 kcal/mol
-----------------------------------------------------------------------
Total Enthalpy                    ...   -382.26504468 Eh

Note: Only C1 symmetry has been detected, increase convergence thresholds
      if your molecule has a higher symmetry. Symmetry factor of 1.0 is
      used for the rotational entropy correction.

Note: Rotational entropy computed according to Herzberg
Infrared and Raman Spectra, Chapter V,1, Van Nostrand Reinhold, 1945
Point Group:  C1, Symmetry Number:   1
Rotational constants in cm-1:     0.071229     0.070027     0.036467

Vibrational entropy computed according to the QRRHO of S. Grimme
Chem.Eur.J. 2012 18 9955

-------
ENTROPY
-------

The entropy contributions are T*S = T*(S(el)+S(vib)+S(rot)+S(trans))
     S(el)   - electronic entropy
     S(vib)  - vibrational entropy
     S(rot)  - rotational entropy
     S(trans)- translational entropy
The entropies will be listed as mutliplied by the temperature to get
units of energy

Electronic entropy                ...      0.00000000 Eh      0.00 kcal/mol
Vibrational entropy               ...      0.01647052 Eh     10.34 kcal/mol
Rotational entropy                ...      0.01357649 Eh      8.52 kcal/mol
Translational entropy             ...      0.01872320 Eh     11.75 kcal/mol
-----------------------------------------------------------------------
Final entropy term                ...      0.04877022 Eh     30.60 kcal/mol

In case the symmetry of your molecule has not been determined correctly
or in case you have a reason to use a different symmetry number we print
out the resulting rotational entropy values for sn=1,12 :
 --------------------------------------------------------
|  sn= 1 | S(rot)=       0.01357649 Eh      8.52 kcal/mol|
|  sn= 2 | S(rot)=       0.01292204 Eh      8.11 kcal/mol|
|  sn= 3 | S(rot)=       0.01253920 Eh      7.87 kcal/mol|
|  sn= 4 | S(rot)=       0.01226758 Eh      7.70 kcal/mol|
|  sn= 5 | S(rot)=       0.01205689 Eh      7.57 kcal/mol|
|  sn= 6 | S(rot)=       0.01188475 Eh      7.46 kcal/mol|
|  sn= 7 | S(rot)=       0.01173920 Eh      7.37 kcal/mol|
|  sn= 8 | S(rot)=       0.01161312 Eh      7.29 kcal/mol|
|  sn= 9 | S(rot)=       0.01150192 Eh      7.22 kcal/mol|
|  sn=10 | S(rot)=       0.01140244 Eh      7.16 kcal/mol|
|  sn=11 | S(rot)=       0.01131245 Eh      7.10 kcal/mol|
|  sn=12 | S(rot)=       0.01123029 Eh      7.05 kcal/mol|
 --------------------------------------------------------

-------------------
GIBBS FREE ENERGY
-------------------

The Gibbs free energy is G = H - T*S

Total enthalpy                    ...   -382.26504468 Eh
Total entropy correction          ...     -0.04877022 Eh    -30.60 kcal/mol
-----------------------------------------------------------------------

                             ****ORCA TERMINATED NORMALLY****
TOTAL RUN TIME: 0 days 0 hours 7 minutes 44 seconds 954 msec
