                         Program Version 4.2.0 -  RELEASE  -
|  1> #
|  2> # 06_H2O_6_ring tpss/aug-cc-pvt(+d)z
|  3> #
|  4> ! tpss d3bj aug-cc-pvt(+d)z def2/j grid4 nofinalgrid opt xyzfile numfreq
|  5>
|  6> *xyz 0 1
|  7> O	0	2.709181	0.148099
|  8> H	-0.122498	3.233153	0.940879
|  9> H	-0.836919	2.216592	0.034772
| 10> O	-2.346219	-1.35459	0.148099
| 11> H	-1.501165	-1.833089	0.034772
| 12> H	-2.738743	-1.722662	0.940879
| 13> O	2.34622	1.354591	-0.148098
| 14> H	2.738743	1.722663	-0.940878
| 15> H	1.501165	1.83309	-0.034772
| 16> O	0	-2.709181	-0.148098
| 17> H	0.83692	-2.216591	-0.034772
| 18> H	0.122498	-3.233152	-0.940878
| 19> O	2.34622	-1.35459	0.148099
| 20> H	2.861241	-1.510489	0.940879
| 21> H	2.338085	-0.383502	0.034772
| 22> O	-2.346219	1.354591	-0.148098
| 23> H	-2.861241	1.51049	-0.940878
| 24> H	-2.338084	0.383502	-0.034772
| 25> *
| 26>
| 27> %maxcore 5000
| 28>
| 29> %pal
| 30> nprocs 24
| 31> end
| 32>
| 33> %geom
| 34> Calc_Hess true # Request an exact Hessian in the first optimization step
| 35> NumHess true #  Request the numerical exact Hessian (only one available for this method).
| 36> Recalc_Hess 10 # Recalculate the exact Hessian every 10 steps.
| 37> end
| 38>
| 39>
| 40>                          ****END OF INPUT****
 Total Charge           Charge          ....    0
 Multiplicity           Mult            ....    1
 Number of Electrons    NEL             ....   60
Dispersion correction           -0.008669239
FINAL SINGLE POINT ENERGY      -458.878368448438
Dispersion correction            ... done
Dispersion correction           -0.008824001
FINAL SINGLE POINT ENERGY      -458.880001243952
Dispersion correction            ... done
Dispersion correction           -0.008975602
FINAL SINGLE POINT ENERGY      -458.880771509149
Dispersion correction            ... done
FINAL SINGLE POINT ENERGY      -458.880479289038
FINAL SINGLE POINT ENERGY      -458.880705973958
FINAL SINGLE POINT ENERGY      -458.880735320154
FINAL SINGLE POINT ENERGY      -458.880740714415
FINAL SINGLE POINT ENERGY      -458.880734753751
Dispersion correction            ... done
Dispersion correction           -0.008975819
FINAL SINGLE POINT ENERGY      -458.880735484868
Dispersion correction            ... done
Dispersion correction           -0.008975777
FINAL SINGLE POINT ENERGY      -458.880738605551
Dispersion correction            ... done
                    ***********************HURRAY********************

CARTESIAN COORDINATES (ANGSTROEM)
---------------------------------
  O      0.021945    2.680956    0.113650
  H     -0.108843    3.198595    0.919942
  H     -0.824536    2.160270   -0.003788
  O     -2.311832   -1.325656    0.111479
  H     -1.446810   -1.811884   -0.018943
  H     -2.689921   -1.699305    0.919406
  O      2.311851    1.325668   -0.111490
  H      2.689878    1.699386   -0.919414
  H      1.446806    1.811837    0.018996
  O     -0.021942   -2.680976   -0.113661
  H      0.824504   -2.160244    0.003816
  H      0.108906   -3.198590   -0.919959
  O      2.270056   -1.334332    0.115401
  H      2.784326   -1.467850    0.923254
  H      2.261669   -0.344182   -0.028012
  O     -2.270067    1.334340   -0.115432
  H     -2.784362    1.467775   -0.923281
  H     -2.261623    0.344198    0.028043

 Multiplicity           Mult            ....    1
 Number of Electrons    NEL             ....   60
 Basis Dimension        Dim             ....  552

ORBITAL ENERGIES
----------------

  NO   OCC          E(Eh)            E(eV)
   0   2.0000     -18.881411      -513.7893
   1   2.0000     -18.881410      -513.7893
   2   2.0000     -18.881393      -513.7888
   3   2.0000     -18.881392      -513.7888
   4   2.0000     -18.881253      -513.7850
   5   2.0000     -18.881251      -513.7850
   6   2.0000      -0.952113       -25.9083
   7   2.0000      -0.945062       -25.7164
   8   2.0000      -0.944989       -25.7145
   9   2.0000      -0.930065       -25.3083
  10   2.0000      -0.930029       -25.3074
  11   2.0000      -0.922058       -25.0905
  12   2.0000      -0.480227       -13.0676
  13   2.0000      -0.479561       -13.0495
  14   2.0000      -0.478939       -13.0326
  15   2.0000      -0.478822       -13.0294
  16   2.0000      -0.478612       -13.0237
  17   2.0000      -0.478162       -13.0115
  18   2.0000      -0.392791       -10.6884
  19   2.0000      -0.371770       -10.1164
  20   2.0000      -0.371455       -10.1078
  21   2.0000      -0.325674        -8.8620
  22   2.0000      -0.325273        -8.8511
  23   2.0000      -0.301616        -8.2074
  24   2.0000      -0.268329        -7.3016
  25   2.0000      -0.268191        -7.2979
  26   2.0000      -0.266921        -7.2633
  27   2.0000      -0.266726        -7.2580
  28   2.0000      -0.266444        -7.2503
  29   2.0000      -0.265119        -7.2143
  30   0.0000      -0.033705        -0.9172
  31   0.0000      -0.012689        -0.3453
  32   0.0000      -0.012374        -0.3367
  33   0.0000       0.005912         0.1609
  34   0.0000       0.009648         0.2625

MULLIKEN ATOMIC CHARGES
-----------------------
   0 O :   -0.363401
   1 H :    0.118354
   2 H :    0.244254
   3 O :   -0.363965
   4 H :    0.245208
   5 H :    0.118754
   6 O :   -0.363974
   7 H :    0.118760
   8 H :    0.245213
   9 O :   -0.363404
  10 H :    0.244257
  11 H :    0.118357
  12 O :   -0.363976
  13 H :    0.119704
  14 H :    0.245065
  15 O :   -0.363982
  16 H :    0.119708
  17 H :    0.245069
Sum of atomic charges:   -0.0000000

LOEWDIN ATOMIC CHARGES
----------------------
   0 O :    1.114406
   1 H :   -0.440176
   2 H :   -0.676500
   3 O :    1.114091
   4 H :   -0.674180
   5 H :   -0.440280
   6 O :    1.114090
   7 H :   -0.440280
   8 H :   -0.674176
   9 O :    1.114404
  10 H :   -0.676495
  11 H :   -0.440176
  12 O :    1.115601
  13 H :   -0.439501
  14 H :   -0.673466
  15 O :    1.115599
  16 H :   -0.439501
  17 H :   -0.673462

  Mayer bond orders larger than 0.100000
B(  0-O ,  1-H ) :   1.0620 B(  0-O ,  2-H ) :   0.8572 B(  0-O ,  8-H ) :   0.1418
B(  2-H , 15-O ) :   0.1413 B(  3-O ,  4-H ) :   0.8554 B(  3-O ,  5-H ) :   1.0615
B(  3-O , 17-H ) :   0.1420 B(  4-H ,  9-O ) :   0.1418 B(  6-O ,  7-H ) :   1.0615
B(  6-O ,  8-H ) :   0.8554 B(  6-O , 14-H ) :   0.1420 B(  9-O , 10-H ) :   0.8572
B(  9-O , 11-H ) :   1.0620 B( 10-H , 12-O ) :   0.1413 B( 12-O , 13-H ) :   1.0601
B( 12-O , 14-H ) :   0.8575 B( 15-O , 16-H ) :   1.0601 B( 15-O , 17-H ) :   0.8575

Dispersion correction           -0.008975782
FINAL SINGLE POINT ENERGY      -458.880739319182

DIPOLE MOMENT
-------------
                                X             Y             Z
Electronic contribution:      0.00001      -0.00000      -0.00007
Nuclear contribution   :     -0.00002       0.00001       0.00014
                        -----------------------------------------
Total Dipole Moment    :     -0.00002       0.00000       0.00007
                        -----------------------------------------
Magnitude (a.u.)       :      0.00007
Magnitude (Debye)      :      0.00019

VIBRATIONAL FREQUENCIES
-----------------------

Scaling factor for frequencies =  1.000000000 (already applied!)

   0:         0.00 cm**-1
   1:         0.00 cm**-1
   2:         0.00 cm**-1
   3:         0.00 cm**-1
   4:         0.00 cm**-1
   5:         0.00 cm**-1
   6:        17.38 cm**-1
   7:        31.37 cm**-1
   8:        50.16 cm**-1
   9:        52.86 cm**-1
  10:        54.53 cm**-1
  11:        94.99 cm**-1
  12:       173.58 cm**-1
  13:       189.95 cm**-1
  14:       214.94 cm**-1
  15:       224.74 cm**-1
  16:       240.48 cm**-1
  17:       243.72 cm**-1
  18:       280.76 cm**-1
  19:       292.94 cm**-1
  20:       322.25 cm**-1
  21:       334.87 cm**-1
  22:       337.89 cm**-1
  23:       372.26 cm**-1
  24:       446.37 cm**-1
  25:       470.71 cm**-1
  26:       471.21 cm**-1
  27:       500.58 cm**-1
  28:       504.05 cm**-1
  29:       506.38 cm**-1
  30:       827.74 cm**-1
  31:       855.97 cm**-1
  32:       858.38 cm**-1
  33:       962.37 cm**-1
  34:       969.91 cm**-1
  35:      1046.30 cm**-1
  36:      1625.72 cm**-1
  37:      1643.26 cm**-1
  38:      1643.40 cm**-1
  39:      1682.90 cm**-1
  40:      1683.58 cm**-1
  41:      1705.61 cm**-1
  42:      3020.09 cm**-1
  43:      3127.63 cm**-1
  44:      3131.01 cm**-1
  45:      3204.20 cm**-1
  46:      3207.32 cm**-1
  47:      3227.76 cm**-1
  48:      3767.06 cm**-1
  49:      3768.01 cm**-1
  50:      3768.66 cm**-1
  51:      3769.83 cm**-1
  52:      3771.73 cm**-1
  53:      3771.90 cm**-1

IR SPECTRUM
-----------

 Mode    freq (cm**-1)   T**2         TX         TY         TZ
-------------------------------------------------------------------
   6:        17.38    1.880074  ( -0.479123   1.284634  -0.015181)
   7:        31.37    0.864323  ( -0.918885  -0.139443   0.023009)
   8:        50.16    0.000545  ( -0.014782  -0.000868   0.018036)
   9:        52.86    0.005713  ( -0.051139   0.002990   0.055575)
  10:        54.53    0.007276  (  0.052875   0.001352  -0.066925)
  11:        94.99    5.673967  ( -0.039217   0.227203   2.370824)
  12:       173.58    0.060797  (  0.116382  -0.023321  -0.216121)
  13:       189.95   46.949199  ( -0.814594   0.151372   6.801671)
  14:       214.94    0.014117  (  0.007027   0.116982  -0.019557)
  15:       224.74    0.005155  (  0.018769  -0.066288   0.020224)
  16:       240.48   39.665955  (  2.315620   5.856125   0.098286)
  17:       243.72   30.550142  (  5.512176  -0.364582  -0.182042)
  18:       280.76  344.026539  ( 15.746491  -9.798155   0.265931)
  19:       292.94  320.466714  ( -9.143185 -15.390309  -0.085278)
  20:       322.25    0.002337  ( -0.047950  -0.005900   0.001804)
  21:       334.87    0.000175  (  0.012861  -0.002767  -0.001450)
  22:       337.89    0.000221  (  0.014710  -0.002125  -0.000645)
  23:       372.26    4.663031  (  0.139193   0.072098   2.153708)
  24:       446.37    0.001323  (  0.034186   0.010562  -0.006545)
  25:       470.71   28.271059  (  3.817649   3.694299  -0.220846)
  26:       471.21   22.448405  ( -3.669250   2.995230  -0.116652)
  27:       500.58   29.954391  (  0.195240   0.307501   5.460926)
  28:       504.05    0.424961  ( -0.003997   0.003000   0.651871)
  29:       506.38    0.157801  (  0.034500  -0.011170  -0.395583)
  30:       827.74  228.037602  (  0.050556  -0.611649 -15.088437)
  31:       855.97    0.326862  ( -0.170467   0.040859  -0.544182)
  32:       858.38    0.004696  ( -0.020078   0.001956  -0.065487)
  33:       962.37  109.573220  ( -8.590570   5.979180  -0.157292)
  34:       969.91  102.510959  (  5.653047   8.396486   0.230316)
  35:      1046.30    0.002666  ( -0.049867   0.005040   0.012416)
  36:      1625.72   74.642301  (  0.421607   0.318452   8.623406)
  37:      1643.26    0.002068  ( -0.016410   0.022887  -0.035707)
  38:      1643.40    0.001987  (  0.033449  -0.010506   0.027532)
  39:      1682.90   88.041669  (  6.494930   6.768098  -0.224520)
  40:      1683.58   98.379563  (  6.585268  -7.416064  -0.125680)
  41:      1705.61    0.002528  (  0.016975  -0.046342  -0.009608)
  42:      3020.09    0.000007  ( -0.002285  -0.001409   0.000418)
  43:      3127.63  3459.160064  ( 56.578994 -16.060018  -0.230781)
  44:      3131.01  3548.622419  ( 16.480081  57.244710   0.269377)
  45:      3204.20    0.000081  ( -0.004859   0.003144   0.006911)
  46:      3207.32    0.000292  ( -0.010892   0.007278   0.010952)
  47:      3227.76  181.294953  (  0.120577  -0.841038  13.437748)
  48:      3767.06  115.703625  (  1.051059  -1.584711 -10.587143)
  49:      3768.01    0.000054  ( -0.000194   0.007064   0.002008)
  50:      3768.66    0.001529  (  0.015121  -0.030560  -0.019154)
  51:      3769.83   73.784187  (  7.599608   3.994704   0.269239)
  52:      3771.73   76.376528  ( -3.960853   7.475354  -2.192547)
  53:      3771.90    0.362625  (  0.271248  -0.510681   0.168091)

--------------------------
THERMOCHEMISTRY AT 298.15K
--------------------------

Temperature         ... 298.15 K
Pressure            ... 1.00 atm
Total Mass          ... 108.09 AMU

Throughout the following assumptions are being made:
  (1) The electronic state is orbitally nondegenerate
  (2) There are no thermally accessible electronically excited states
  (3) Hindered rotations indicated by low frequency modes are not
      treated as such but are treated as vibrations and this may
      cause some error
  (4) All equations used are the standard statistical mechanics
      equations for an ideal gas
  (5) All vibrations are strictly harmonic

freq.      17.38  E(vib)   ...       0.57
freq.      31.37  E(vib)   ...       0.55
freq.      50.16  E(vib)   ...       0.52
freq.      52.86  E(vib)   ...       0.52
freq.      54.53  E(vib)   ...       0.52
freq.      94.99  E(vib)   ...       0.47
freq.     173.58  E(vib)   ...       0.38
freq.     189.95  E(vib)   ...       0.36
freq.     214.94  E(vib)   ...       0.34
freq.     224.74  E(vib)   ...       0.33
freq.     240.48  E(vib)   ...       0.31
freq.     243.72  E(vib)   ...       0.31
freq.     280.76  E(vib)   ...       0.28
freq.     292.94  E(vib)   ...       0.27
freq.     322.25  E(vib)   ...       0.25
freq.     334.87  E(vib)   ...       0.24
freq.     337.89  E(vib)   ...       0.24
freq.     372.26  E(vib)   ...       0.21
freq.     446.37  E(vib)   ...       0.17
freq.     470.71  E(vib)   ...       0.15
freq.     471.21  E(vib)   ...       0.15
freq.     500.58  E(vib)   ...       0.14
freq.     504.05  E(vib)   ...       0.14
freq.     506.38  E(vib)   ...       0.14
freq.     827.74  E(vib)   ...       0.04
freq.     855.97  E(vib)   ...       0.04
freq.     858.38  E(vib)   ...       0.04
freq.     962.37  E(vib)   ...       0.03
freq.     969.91  E(vib)   ...       0.03
freq.    1046.30  E(vib)   ...       0.02
freq.    1625.72  E(vib)   ...       0.00
freq.    1643.26  E(vib)   ...       0.00
freq.    1643.40  E(vib)   ...       0.00
freq.    1682.90  E(vib)   ...       0.00
freq.    1683.58  E(vib)   ...       0.00
freq.    1705.61  E(vib)   ...       0.00
freq.    3020.09  E(vib)   ...       0.00
freq.    3127.63  E(vib)   ...       0.00
freq.    3131.01  E(vib)   ...       0.00
freq.    3204.20  E(vib)   ...       0.00
freq.    3207.32  E(vib)   ...       0.00
freq.    3227.76  E(vib)   ...       0.00
freq.    3767.06  E(vib)   ...       0.00
freq.    3768.01  E(vib)   ...       0.00
freq.    3768.66  E(vib)   ...       0.00
freq.    3769.83  E(vib)   ...       0.00
freq.    3771.73  E(vib)   ...       0.00
freq.    3771.90  E(vib)   ...       0.00

------------
INNER ENERGY
------------

The inner energy is: U= E(el) + E(ZPE) + E(vib) + E(rot) + E(trans)
    E(el)   - is the total energy from the electronic structure calculation
              = E(kin-el) + E(nuc-el) + E(el-el) + E(nuc-nuc)
    E(ZPE)  - the the zero temperature vibrational energy from the frequency calculation
    E(vib)  - the the finite temperature correction to E(ZPE) due to population
              of excited vibrational states
    E(rot)  - is the rotational thermal energy
    E(trans)- is the translational thermal energy

Summary of contributions to the inner energy U:
Electronic energy                ...   -458.88073931 Eh
Zero point energy                ...      0.14459379 Eh      90.73 kcal/mol
Thermal vibrational correction   ...      0.01235806 Eh       7.75 kcal/mol
Thermal rotational correction    ...      0.00141627 Eh       0.89 kcal/mol
Thermal translational correction ...      0.00141627 Eh       0.89 kcal/mol
-----------------------------------------------------------------------
Total thermal energy                   -458.72095493 Eh

Summary of corrections to the electronic energy:
(perhaps to be used in another calculation)
Total thermal correction                  0.01519060 Eh       9.53 kcal/mol
Non-thermal (ZPE) correction              0.14459379 Eh      90.73 kcal/mol
-----------------------------------------------------------------------
Total correction                          0.15978439 Eh     100.27 kcal/mol

--------
ENTHALPY
--------

The enthalpy is H = U + kB*T
                kB is Boltzmann's constant
Total free energy                 ...   -458.72095493 Eh
Thermal Enthalpy correction       ...      0.00094421 Eh       0.59 kcal/mol
-----------------------------------------------------------------------
Total Enthalpy                    ...   -458.72001072 Eh

Note: Only C1 symmetry has been detected, increase convergence thresholds
      if your molecule has a higher symmetry. Symmetry factor of 1.0 is
      used for the rotational entropy correction.

Note: Rotational entropy computed according to Herzberg
Infrared and Raman Spectra, Chapter V,1, Van Nostrand Reinhold, 1945
Point Group:  C1, Symmetry Number:   1
Rotational constants in cm-1:     0.043538     0.042371     0.021827

Vibrational entropy computed according to the QRRHO of S. Grimme
Chem.Eur.J. 2012 18 9955

-------
ENTROPY
-------

The entropy contributions are T*S = T*(S(el)+S(vib)+S(rot)+S(trans))
     S(el)   - electronic entropy
     S(vib)  - vibrational entropy
     S(rot)  - rotational entropy
     S(trans)- translational entropy
The entropies will be listed as mutliplied by the temperature to get
units of energy

Electronic entropy                ...      0.00000000 Eh      0.00 kcal/mol
Vibrational entropy               ...      0.02261954 Eh     14.19 kcal/mol
Rotational entropy                ...      0.01428836 Eh      8.97 kcal/mol
Translational entropy             ...      0.01898142 Eh     11.91 kcal/mol
-----------------------------------------------------------------------
Final entropy term                ...      0.05588932 Eh     35.07 kcal/mol

In case the symmetry of your molecule has not been determined correctly
or in case you have a reason to use a different symmetry number we print
out the resulting rotational entropy values for sn=1,12 :
 --------------------------------------------------------
|  sn= 1 | S(rot)=       0.01428836 Eh      8.97 kcal/mol|
|  sn= 2 | S(rot)=       0.01363391 Eh      8.56 kcal/mol|
|  sn= 3 | S(rot)=       0.01325107 Eh      8.32 kcal/mol|
|  sn= 4 | S(rot)=       0.01297945 Eh      8.14 kcal/mol|
|  sn= 5 | S(rot)=       0.01276876 Eh      8.01 kcal/mol|
|  sn= 6 | S(rot)=       0.01259662 Eh      7.90 kcal/mol|
|  sn= 7 | S(rot)=       0.01245107 Eh      7.81 kcal/mol|
|  sn= 8 | S(rot)=       0.01232499 Eh      7.73 kcal/mol|
|  sn= 9 | S(rot)=       0.01221379 Eh      7.66 kcal/mol|
|  sn=10 | S(rot)=       0.01211431 Eh      7.60 kcal/mol|
|  sn=11 | S(rot)=       0.01202432 Eh      7.55 kcal/mol|
|  sn=12 | S(rot)=       0.01194216 Eh      7.49 kcal/mol|
 --------------------------------------------------------

                             ****ORCA TERMINATED NORMALLY****
TOTAL RUN TIME: 0 days 0 hours 18 minutes 20 seconds 297 msec
