                         Program Version 4.2.0 -  RELEASE  -
|  1> #
|  2> # 06_H2O_6_ring tpss/aug-cc-pvt(+d)z
|  3> #
|  4> ! tpss d3bj aug-cc-pvt(+d)z def2/j grid4 nofinalgrid opt xyzfile numfreq
|  5>
|  6> *xyz 0 1
|  7> O	0	2.709181	0.148099
|  8> H	-0.122498	3.233153	0.940879
|  9> H	-0.836919	2.216592	0.034772
| 10> O	-2.346219	-1.35459	0.148099
| 11> H	-1.501165	-1.833089	0.034772
| 12> H	-2.738743	-1.722662	0.940879
| 13> O	2.34622	1.354591	-0.148098
| 14> H	2.738743	1.722663	-0.940878
| 15> H	1.501165	1.83309	-0.034772
| 16> O	0	-2.709181	-0.148098
| 17> H	0.83692	-2.216591	-0.034772
| 18> H	0.122498	-3.233152	-0.940878
| 19> O	2.34622	-1.35459	0.148099
| 20> H	2.861241	-1.510489	0.940879
| 21> H	2.338085	-0.383502	0.034772
| 22> O	-2.346219	1.354591	-0.148098
| 23> H	-2.861241	1.51049	-0.940878
| 24> H	-2.338084	0.383502	-0.034772
| 25> *
| 26>
| 27> %maxcore 5000
| 28>
| 29> %pal
| 30> nprocs 24
| 31> end
| 32>
| 33>
| 34>                          ****END OF INPUT****
 Total Charge           Charge          ....    0
 Multiplicity           Mult            ....    1
 Number of Electrons    NEL             ....   60
Dispersion correction           -0.008669239
FINAL SINGLE POINT ENERGY      -458.878368448438
Dispersion correction            ... done
Dispersion correction           -0.008689626
FINAL SINGLE POINT ENERGY      -458.880193103324
Dispersion correction            ... done
Dispersion correction           -0.008843806
FINAL SINGLE POINT ENERGY      -458.880759243058
Dispersion correction            ... done
FINAL SINGLE POINT ENERGY      -458.880884349945
FINAL SINGLE POINT ENERGY      -458.880893223148
FINAL SINGLE POINT ENERGY      -458.880919432589
FINAL SINGLE POINT ENERGY      -458.880914265987
FINAL SINGLE POINT ENERGY      -458.880809532758
FINAL SINGLE POINT ENERGY      -458.880681410308
FINAL SINGLE POINT ENERGY      -458.880566497931
Dispersion correction            ... done
Dispersion correction           -0.008998095
FINAL SINGLE POINT ENERGY      -458.880516933926
Dispersion correction            ... done
Dispersion correction           -0.008996047
FINAL SINGLE POINT ENERGY      -458.880522758901
Dispersion correction            ... done
                    ***********************HURRAY********************

CARTESIAN COORDINATES (ANGSTROEM)
---------------------------------
  O     -0.012468    2.668265   -0.071534
  H     -0.083046    3.308356    0.650630
  H     -0.860585    2.136839   -0.027177
  O     -2.301870   -1.338436   -0.071911
  H     -1.416409   -1.804848   -0.027050
  H     -2.820788   -1.722518    0.648803
  O      2.301870    1.338436    0.071908
  H      2.820788    1.722517   -0.648806
  H      1.416409    1.804849    0.027048
  O      0.012469   -2.668264    0.071532
  H      0.860586   -2.136838    0.027178
  H      0.083048   -3.308355   -0.650631
  O      2.321624   -1.330199   -0.071271
  H      2.911414   -1.586544    0.651665
  H      2.279094   -0.330346   -0.025899
  O     -2.321622    1.330200    0.071276
  H     -2.911416    1.586547   -0.651655
  H     -2.279093    0.330346    0.025901

 Multiplicity           Mult            ....    1
 Number of Electrons    NEL             ....   60
 Basis Dimension        Dim             ....  552

ORBITAL ENERGIES
----------------

  NO   OCC          E(Eh)            E(eV)
   0   2.0000     -18.882070      -513.8072
   1   2.0000     -18.882069      -513.8072
   2   2.0000     -18.882056      -513.8069
   3   2.0000     -18.882056      -513.8069
   4   2.0000     -18.882007      -513.8055
   5   2.0000     -18.882007      -513.8055
   6   2.0000      -0.952946       -25.9310
   7   2.0000      -0.945789       -25.7362
   8   2.0000      -0.945738       -25.7348
   9   2.0000      -0.930554       -25.3217
  10   2.0000      -0.930502       -25.3202
  11   2.0000      -0.922370       -25.0990
  12   2.0000      -0.481389       -13.0993
  13   2.0000      -0.478706       -13.0263
  14   2.0000      -0.478398       -13.0179
  15   2.0000      -0.478200       -13.0125
  16   2.0000      -0.477287       -12.9876
  17   2.0000      -0.477084       -12.9821
  18   2.0000      -0.389741       -10.6054
  19   2.0000      -0.371674       -10.1138
  20   2.0000      -0.371564       -10.1108
  21   2.0000      -0.328513        -8.9393
  22   2.0000      -0.328441        -8.9373
  23   2.0000      -0.304468        -8.2850
  24   2.0000      -0.268868        -7.3163
  25   2.0000      -0.268836        -7.3154
  26   2.0000      -0.268762        -7.3134
  27   2.0000      -0.267053        -7.2669
  28   2.0000      -0.266979        -7.2649
  29   2.0000      -0.263905        -7.1812
  30   0.0000      -0.033542        -0.9127
  31   0.0000      -0.013982        -0.3805
  32   0.0000      -0.013954        -0.3797
  33   0.0000       0.009054         0.2464
  34   0.0000       0.009111         0.2479

MULLIKEN ATOMIC CHARGES
-----------------------
   0 O :   -0.343028
   1 H :    0.106813
   2 H :    0.236508
   3 O :   -0.344243
   4 H :    0.237240
   5 H :    0.107131
   6 O :   -0.344244
   7 H :    0.107131
   8 H :    0.237241
   9 O :   -0.343029
  10 H :    0.236508
  11 H :    0.106813
  12 O :   -0.346030
  13 H :    0.108097
  14 H :    0.237514
  15 O :   -0.346031
  16 H :    0.108097
  17 H :    0.237514
Sum of atomic charges:   -0.0000000

LOEWDIN ATOMIC CHARGES
----------------------
   0 O :    1.112668
   1 H :   -0.439384
   2 H :   -0.673481
   3 O :    1.112868
   4 H :   -0.673190
   5 H :   -0.439255
   6 O :    1.112868
   7 H :   -0.439255
   8 H :   -0.673190
   9 O :    1.112668
  10 H :   -0.673482
  11 H :   -0.439384
  12 O :    1.112654
  13 H :   -0.439327
  14 H :   -0.673553
  15 O :    1.112654
  16 H :   -0.439327
  17 H :   -0.673553

  Mayer bond orders larger than 0.100000
B(  0-O ,  1-H ) :   1.0757 B(  0-O ,  2-H ) :   0.8544 B(  0-O ,  8-H ) :   0.1506
B(  2-H , 15-O ) :   0.1508 B(  3-O ,  4-H ) :   0.8535 B(  3-O ,  5-H ) :   1.0753
B(  3-O , 17-H ) :   0.1511 B(  4-H ,  9-O ) :   0.1506 B(  6-O ,  7-H ) :   1.0753
B(  6-O ,  8-H ) :   0.8535 B(  6-O , 14-H ) :   0.1511 B(  9-O , 10-H ) :   0.8544
B(  9-O , 11-H ) :   1.0757 B( 10-H , 12-O ) :   0.1508 B( 12-O , 13-H ) :   1.0744
B( 12-O , 14-H ) :   0.8529 B( 15-O , 16-H ) :   1.0744 B( 15-O , 17-H ) :   0.8529

Dispersion correction           -0.008995427
FINAL SINGLE POINT ENERGY      -458.880530243164

DIPOLE MOMENT
-------------
                                X             Y             Z
Electronic contribution:      0.00000      -0.00000      -0.00000
Nuclear contribution   :     -0.00000       0.00000       0.00000
                        -----------------------------------------
Total Dipole Moment    :     -0.00000       0.00000       0.00000
                        -----------------------------------------
Magnitude (a.u.)       :      0.00000
Magnitude (Debye)      :      0.00000

VIBRATIONAL FREQUENCIES
-----------------------

Scaling factor for frequencies =  1.000000000 (already applied!)

   0:         0.00 cm**-1
   1:         0.00 cm**-1
   2:         0.00 cm**-1
   3:         0.00 cm**-1
   4:         0.00 cm**-1
   5:         0.00 cm**-1
   6:       -10.87 cm**-1 ***imaginary mode***
   7:        26.55 cm**-1
   8:        41.50 cm**-1
   9:        54.14 cm**-1
  10:        54.71 cm**-1
  11:        99.39 cm**-1
  12:       171.02 cm**-1
  13:       237.73 cm**-1
  14:       240.58 cm**-1
  15:       242.21 cm**-1
  16:       254.67 cm**-1
  17:       262.04 cm**-1
  18:       313.58 cm**-1
  19:       315.55 cm**-1
  20:       336.82 cm**-1
  21:       337.44 cm**-1
  22:       346.45 cm**-1
  23:       375.04 cm**-1
  24:       471.89 cm**-1
  25:       475.18 cm**-1
  26:       493.49 cm**-1
  27:       496.56 cm**-1
  28:       505.28 cm**-1
  29:       507.39 cm**-1
  30:       857.26 cm**-1
  31:       875.24 cm**-1
  32:       876.48 cm**-1
  33:       979.17 cm**-1
  34:       980.16 cm**-1
  35:      1059.71 cm**-1
  36:      1631.58 cm**-1
  37:      1647.19 cm**-1
  38:      1647.36 cm**-1
  39:      1682.96 cm**-1
  40:      1684.50 cm**-1
  41:      1705.99 cm**-1
  42:      2996.49 cm**-1
  43:      3110.36 cm**-1
  44:      3112.39 cm**-1
  45:      3188.97 cm**-1
  46:      3191.91 cm**-1
  47:      3212.27 cm**-1
  48:      3761.16 cm**-1
  49:      3761.16 cm**-1
  50:      3764.43 cm**-1
  51:      3765.31 cm**-1
  52:      3765.75 cm**-1
  53:      3766.62 cm**-1

IR SPECTRUM
-----------

 Mode    freq (cm**-1)   T**2         TX         TY         TZ
-------------------------------------------------------------------
   7:        26.55    0.747302  (  0.625269  -0.578145   0.148621)
   8:        41.50    0.000000  (  0.000418  -0.000195   0.000139)
   9:        54.14    0.000000  (  0.000338  -0.000159  -0.000473)
  10:        54.71    0.000001  ( -0.000679  -0.000125  -0.000492)
  11:        99.39    8.641357  (  0.012371   0.179627   2.934099)
  12:       171.02    0.000001  (  0.000050  -0.000717   0.000167)
  13:       237.73   35.165803  ( -5.097480   2.820823  -1.106552)
  14:       240.58   64.637248  ( -2.986186  -4.482444  -5.968889)
  15:       242.21   42.675211  (  2.473037   2.780698  -5.369080)
  16:       254.67    0.000024  (  0.002125  -0.000138   0.004362)
  17:       262.04    0.000012  (  0.000515  -0.000224   0.003444)
  18:       313.58  320.029614  (-14.652831  10.262062   0.119306)
  19:       315.55  319.313104  (-10.243802 -14.633471   0.489036)
  20:       336.82    0.000018  (  0.003064   0.002901   0.000192)
  21:       337.44    0.000016  (  0.003263  -0.002241  -0.000475)
  22:       346.45    0.000009  ( -0.000135  -0.002954  -0.000059)
  23:       375.04    0.133492  (  0.010738   0.093808   0.352955)
  24:       471.89    0.000213  (  0.000948  -0.003887   0.014020)
  25:       475.18   15.249412  (  0.224892  -0.419664   3.875915)
  26:       493.49   52.723010  (  1.595236  -7.081317  -0.182162)
  27:       496.56   50.552325  ( -6.994505  -1.276361   0.011330)
  28:       505.28    0.000010  ( -0.002421   0.001886   0.000414)
  29:       507.39    0.000025  (  0.004638   0.001729   0.000903)
  30:       857.26  263.739079  (  0.164917   0.040180 -16.239158)
  31:       875.24    0.000003  (  0.000249  -0.000822  -0.001518)
  32:       876.48    0.000047  (  0.000280   0.000108  -0.006882)
  33:       979.17   74.961073  (  2.074594  -8.405024  -0.112741)
  34:       980.16   69.270225  ( -8.005363  -2.275894  -0.068493)
  35:      1059.71    0.000000  (  0.000219   0.000184  -0.000124)
  36:      1631.58  107.355921  (  0.169158   0.161280  10.358634)
  37:      1647.19    0.000000  ( -0.000328  -0.000062  -0.000169)
  38:      1647.36    0.000000  (  0.000129   0.000011  -0.000450)
  39:      1682.96   79.260047  ( -3.897290   8.003130   0.145196)
  40:      1684.50   69.583373  ( -7.579463  -3.480350   0.149232)
  41:      1705.99    0.000004  (  0.000831  -0.001807   0.000264)
  42:      2996.49    0.000001  (  0.000019   0.000874   0.000023)
  43:      3110.36  3698.684018  (-59.201170 -13.924454  -0.122913)
  44:      3112.39  3650.657910  (-14.036110  58.766554   0.370989)
  45:      3188.97    0.000001  ( -0.000823   0.000456  -0.000184)
  46:      3191.91    0.000002  (  0.000996  -0.000831  -0.000287)
  47:      3212.27   12.567834  ( -0.098541  -1.182681   3.340567)
  48:      3761.16    1.402360  (  0.775810   0.132932  -0.884764)
  49:      3761.16   74.196657  ( -5.642741  -0.975095   6.434697)
  50:      3764.43    0.000149  (  0.001591  -0.012035  -0.001304)
  51:      3765.31   81.008980  (  7.221037  -3.447580   4.120655)
  52:      3765.75   84.755157  (  2.480977   8.605245   2.132995)
  53:      3766.62    0.000184  (  0.007287   0.010423   0.004714)

--------------------------
THERMOCHEMISTRY AT 298.15K
--------------------------

Temperature         ... 298.15 K
Pressure            ... 1.00 atm
Total Mass          ... 108.09 AMU

Throughout the following assumptions are being made:
  (1) The electronic state is orbitally nondegenerate
  (2) There are no thermally accessible electronically excited states
  (3) Hindered rotations indicated by low frequency modes are not
      treated as such but are treated as vibrations and this may
      cause some error
  (4) All equations used are the standard statistical mechanics
      equations for an ideal gas
  (5) All vibrations are strictly harmonic

freq.      26.55  E(vib)   ...       0.56
freq.      41.50  E(vib)   ...       0.54
freq.      54.14  E(vib)   ...       0.52
freq.      54.71  E(vib)   ...       0.52
freq.      99.39  E(vib)   ...       0.46
freq.     171.02  E(vib)   ...       0.38
freq.     237.73  E(vib)   ...       0.32
freq.     240.58  E(vib)   ...       0.31
freq.     242.21  E(vib)   ...       0.31
freq.     254.67  E(vib)   ...       0.30
freq.     262.04  E(vib)   ...       0.29
freq.     313.58  E(vib)   ...       0.25
freq.     315.55  E(vib)   ...       0.25
freq.     336.82  E(vib)   ...       0.24
freq.     337.44  E(vib)   ...       0.24
freq.     346.45  E(vib)   ...       0.23
freq.     375.04  E(vib)   ...       0.21
freq.     471.89  E(vib)   ...       0.15
freq.     475.18  E(vib)   ...       0.15
freq.     493.49  E(vib)   ...       0.14
freq.     496.56  E(vib)   ...       0.14
freq.     505.28  E(vib)   ...       0.14
freq.     507.39  E(vib)   ...       0.14
freq.     857.26  E(vib)   ...       0.04
freq.     875.24  E(vib)   ...       0.04
freq.     876.48  E(vib)   ...       0.04
freq.     979.17  E(vib)   ...       0.03
freq.     980.16  E(vib)   ...       0.02
freq.    1059.71  E(vib)   ...       0.02
freq.    1631.58  E(vib)   ...       0.00
freq.    1647.19  E(vib)   ...       0.00
freq.    1647.36  E(vib)   ...       0.00
freq.    1682.96  E(vib)   ...       0.00
freq.    1684.50  E(vib)   ...       0.00
freq.    1705.99  E(vib)   ...       0.00
freq.    2996.49  E(vib)   ...       0.00
freq.    3110.36  E(vib)   ...       0.00
freq.    3112.39  E(vib)   ...       0.00
freq.    3188.97  E(vib)   ...       0.00
freq.    3191.91  E(vib)   ...       0.00
freq.    3212.27  E(vib)   ...       0.00
freq.    3761.16  E(vib)   ...       0.00
freq.    3761.16  E(vib)   ...       0.00
freq.    3764.43  E(vib)   ...       0.00
freq.    3765.31  E(vib)   ...       0.00
freq.    3765.75  E(vib)   ...       0.00
freq.    3766.62  E(vib)   ...       0.00

------------
INNER ENERGY
------------

The inner energy is: U= E(el) + E(ZPE) + E(vib) + E(rot) + E(trans)
    E(el)   - is the total energy from the electronic structure calculation
              = E(kin-el) + E(nuc-el) + E(el-el) + E(nuc-nuc)
    E(ZPE)  - the the zero temperature vibrational energy from the frequency calculation
    E(vib)  - the the finite temperature correction to E(ZPE) due to population
              of excited vibrational states
    E(rot)  - is the rotational thermal energy
    E(trans)- is the translational thermal energy

Summary of contributions to the inner energy U:
Electronic energy                ...   -458.88053024 Eh
Zero point energy                ...      0.14508198 Eh      91.04 kcal/mol
Thermal vibrational correction   ...      0.01112841 Eh       6.98 kcal/mol
Thermal rotational correction    ...      0.00141627 Eh       0.89 kcal/mol
Thermal translational correction ...      0.00141627 Eh       0.89 kcal/mol
-----------------------------------------------------------------------
Total thermal energy                   -458.72148731 Eh

Summary of corrections to the electronic energy:
(perhaps to be used in another calculation)
Total thermal correction                  0.01396095 Eh       8.76 kcal/mol
Non-thermal (ZPE) correction              0.14508198 Eh      91.04 kcal/mol
-----------------------------------------------------------------------
Total correction                          0.15904293 Eh      99.80 kcal/mol

--------
ENTHALPY
--------

The enthalpy is H = U + kB*T
                kB is Boltzmann's constant
Total free energy                 ...   -458.72148731 Eh
Thermal Enthalpy correction       ...      0.00094421 Eh       0.59 kcal/mol
-----------------------------------------------------------------------
Total Enthalpy                    ...   -458.72054310 Eh

Note: Only C1 symmetry has been detected, increase convergence thresholds
      if your molecule has a higher symmetry. Symmetry factor of 1.0 is
      used for the rotational entropy correction.

Note: Rotational entropy computed according to Herzberg
Infrared and Raman Spectra, Chapter V,1, Van Nostrand Reinhold, 1945
Point Group:  C1, Symmetry Number:   1
Rotational constants in cm-1:     0.042936     0.042621     0.021556

Vibrational entropy computed according to the QRRHO of S. Grimme
Chem.Eur.J. 2012 18 9955

-------
ENTROPY
-------

The entropy contributions are T*S = T*(S(el)+S(vib)+S(rot)+S(trans))
     S(el)   - electronic entropy
     S(vib)  - vibrational entropy
     S(rot)  - rotational entropy
     S(trans)- translational entropy
The entropies will be listed as mutliplied by the temperature to get
units of energy

Electronic entropy                ...      0.00000000 Eh      0.00 kcal/mol
Vibrational entropy               ...      0.01980258 Eh     12.43 kcal/mol
Rotational entropy                ...      0.01429807 Eh      8.97 kcal/mol
Translational entropy             ...      0.01898142 Eh     11.91 kcal/mol
-----------------------------------------------------------------------
Final entropy term                ...      0.05308206 Eh     33.31 kcal/mol

In case the symmetry of your molecule has not been determined correctly
or in case you have a reason to use a different symmetry number we print
out the resulting rotational entropy values for sn=1,12 :
 --------------------------------------------------------
|  sn= 1 | S(rot)=       0.01429807 Eh      8.97 kcal/mol|
|  sn= 2 | S(rot)=       0.01364361 Eh      8.56 kcal/mol|
|  sn= 3 | S(rot)=       0.01326078 Eh      8.32 kcal/mol|
|  sn= 4 | S(rot)=       0.01298915 Eh      8.15 kcal/mol|
|  sn= 5 | S(rot)=       0.01277847 Eh      8.02 kcal/mol|
|  sn= 6 | S(rot)=       0.01260632 Eh      7.91 kcal/mol|
|  sn= 7 | S(rot)=       0.01246077 Eh      7.82 kcal/mol|
|  sn= 8 | S(rot)=       0.01233470 Eh      7.74 kcal/mol|
|  sn= 9 | S(rot)=       0.01222349 Eh      7.67 kcal/mol|
|  sn=10 | S(rot)=       0.01212401 Eh      7.61 kcal/mol|
|  sn=11 | S(rot)=       0.01203402 Eh      7.55 kcal/mol|
|  sn=12 | S(rot)=       0.01195186 Eh      7.50 kcal/mol|
 --------------------------------------------------------

-------------------

                             ****ORCA TERMINATED NORMALLY****
TOTAL RUN TIME: 0 days 0 hours 11 minutes 2 seconds 5 msec
