                         Program Version 4.2.0 -  RELEASE  -
|  1> #
|  2> # 07_H2O_6_book tpss/aug-cc-pvt(+d)z
|  3> #
|  4> ! tpss d3bj aug-cc-pvt(+d)z def2/j grid4 nofinalgrid opt xyzfile numfreq
|  5>
|  6> *xyz 0 1
|  7> O	0.116757	1.553296	0.874144
|  8> H	0.955357	1.526953	0.36374
|  9> H	0.278593	2.140101	1.61497
| 10> O	-0.028991	-1.36957	0.910464
| 11> H	-0.055528	-0.424567	1.109294
| 12> H	-0.872074	-1.539194	0.457007
| 13> O	-2.340721	1.363977	-0.433023
| 14> H	-1.482171	1.543988	-0.013805
| 15> H	-2.349173	1.886417	-1.236377
| 16> O	-2.490803	-1.41279	-0.437012
| 17> H	-2.562332	-0.444637	-0.504051
| 18> H	-3.290032	-1.695404	0.010212
| 19> O	2.424786	1.214249	-0.477895
| 20> H	2.508896	0.237506	-0.500154
| 21> H	2.55493	1.502809	-1.382466
| 22> O	2.31194	-1.486888	-0.434852
| 23> H	1.449966	-1.577886	0.025804
| 24> H	2.919833	-2.054267	0.041233
| 25> *
| 26>
| 27> %maxcore 5000
| 28>
| 29> %pal
| 30> nprocs 24
| 31> end
| 32>
| 33>
| 34>                          ****END OF INPUT****
 Total Charge           Charge          ....    0
 Multiplicity           Mult            ....    1
 Number of Electrons    NEL             ....   60
Dispersion correction           -0.010354347
FINAL SINGLE POINT ENERGY      -458.879528821008
Dispersion correction            ... done
Dispersion correction           -0.010340717
FINAL SINGLE POINT ENERGY      -458.881185748732
Dispersion correction            ... done
Dispersion correction           -0.010493930
FINAL SINGLE POINT ENERGY      -458.881642398499
Dispersion correction            ... done
FINAL SINGLE POINT ENERGY      -458.881833961477
FINAL SINGLE POINT ENERGY      -458.881855294877
FINAL SINGLE POINT ENERGY      -458.881900262500
FINAL SINGLE POINT ENERGY      -458.881927762521
FINAL SINGLE POINT ENERGY      -458.881967177181
FINAL SINGLE POINT ENERGY      -458.881992927431
FINAL SINGLE POINT ENERGY      -458.882005387045
FINAL SINGLE POINT ENERGY      -458.882100742892
FINAL SINGLE POINT ENERGY      -458.882098286145
FINAL SINGLE POINT ENERGY      -458.882096215696
FINAL SINGLE POINT ENERGY      -458.882093925688
FINAL SINGLE POINT ENERGY      -458.882090584940
FINAL SINGLE POINT ENERGY      -458.882085114802
FINAL SINGLE POINT ENERGY      -458.882078992575
Dispersion correction            ... done
Dispersion correction           -0.010741172
FINAL SINGLE POINT ENERGY      -458.882072187416
Dispersion correction            ... done
Dispersion correction           -0.010740421
FINAL SINGLE POINT ENERGY      -458.882070175036
Dispersion correction            ... done
                    ***********************HURRAY********************

CARTESIAN COORDINATES (ANGSTROEM)
---------------------------------
  O      0.086718    1.531953    0.831137
  H      0.976737    1.492543    0.359300
  H      0.190352    2.176941    1.544699
  O     -0.006357   -1.380490    1.014018
  H     -0.011382   -0.422584    1.214654
  H     -0.852711   -1.513248    0.512714
  O     -2.311837    1.338744   -0.476287
  H     -1.434871    1.516150   -0.049948
  H     -2.262418    1.746348   -1.352405
  O     -2.360516   -1.394257   -0.409923
  H     -2.440372   -0.407039   -0.488453
  H     -3.139919   -1.671599    0.092327
  O      2.436739    1.188575   -0.336661
  H      2.428341    0.188435   -0.455955
  H      2.578242    1.551991   -1.222075
  O      2.114464   -1.430719   -0.585213
  H      1.291997   -1.516578   -0.008035
  H      2.766025   -2.031075   -0.196660

 Multiplicity           Mult            ....    1
 Number of Electrons    NEL             ....   60
 Basis Dimension        Dim             ....  552

ORBITAL ENERGIES
----------------

  NO   OCC          E(Eh)            E(eV)
   0   2.0000     -18.901829      -514.3449
   1   2.0000     -18.892421      -514.0889
   2   2.0000     -18.890634      -514.0403
   3   2.0000     -18.880451      -513.7632
   4   2.0000     -18.880197      -513.7563
   5   2.0000     -18.868664      -513.4425
   6   2.0000      -0.964392       -26.2424
   7   2.0000      -0.951526       -25.8923
   8   2.0000      -0.945679       -25.7332
   9   2.0000      -0.937660       -25.5150
  10   2.0000      -0.932556       -25.3761
  11   2.0000      -0.917767       -24.9737
  12   2.0000      -0.502353       -13.6697
  13   2.0000      -0.492589       -13.4040
  14   2.0000      -0.486950       -13.2506
  15   2.0000      -0.477319       -12.9885
  16   2.0000      -0.472835       -12.8665
  17   2.0000      -0.460752       -12.5377
  18   2.0000      -0.395533       -10.7630
  19   2.0000      -0.369854       -10.0642
  20   2.0000      -0.358691        -9.7605
  21   2.0000      -0.345699        -9.4070
  22   2.0000      -0.333444        -9.0735
  23   2.0000      -0.312751        -8.5104
  24   2.0000      -0.286791        -7.8040
  25   2.0000      -0.276955        -7.5363
  26   2.0000      -0.275279        -7.4907
  27   2.0000      -0.267017        -7.2659
  28   2.0000      -0.262157        -7.1336
  29   2.0000      -0.255213        -6.9447
  30   0.0000      -0.038567        -1.0495
  31   0.0000      -0.014133        -0.3846
  32   0.0000      -0.007768        -0.2114
  33   0.0000      -0.003882        -0.1056
  34   0.0000       0.007980         0.2172

MULLIKEN ATOMIC CHARGES
-----------------------
   0 O :   -0.515534
   1 H :    0.288846
   2 H :    0.114501
   3 O :   -0.511977
   4 H :    0.323058
   5 H :    0.254776
   6 O :   -0.399094
   7 H :    0.306089
   8 H :    0.121616
   9 O :   -0.399878
  10 H :    0.284329
  11 H :    0.116281
  12 O :   -0.341394
  13 H :    0.259897
  14 H :    0.097069
  15 O :   -0.354675
  16 H :    0.262237
  17 H :    0.093854
Sum of atomic charges:   -0.0000000

LOEWDIN ATOMIC CHARGES
----------------------
   0 O :    1.130899
   1 H :   -0.656845
   2 H :   -0.419372
   3 O :    1.125892
   4 H :   -0.560855
   5 H :   -0.628873
   6 O :    1.106947
   7 H :   -0.651052
   8 H :   -0.447257
   9 O :    1.098306
  10 H :   -0.656741
  11 H :   -0.451919
  12 O :    1.112362
  13 H :   -0.666066
  14 H :   -0.438730
  15 O :    1.107896
  16 H :   -0.663434
  17 H :   -0.441160

  Mayer bond orders larger than 0.100000
B(  0-O ,  1-H ) :   0.7381 B(  0-O ,  2-H ) :   1.0494 B(  1-H , 12-O ) :   0.1849
B(  3-O ,  4-H ) :   0.8063 B(  3-O ,  5-H ) :   0.8792 B(  3-O , 16-H ) :   0.1499
B(  6-O ,  7-H ) :   0.8091 B(  6-O ,  8-H ) :   1.0669 B(  9-O , 10-H ) :   0.8279
B(  9-O , 11-H ) :   1.0735 B( 12-O , 13-H ) :   0.7948 B( 12-O , 14-H ) :   1.0727
B( 13-H , 15-O ) :   0.1564 B( 15-O , 16-H ) :   0.7769 B( 15-O , 17-H ) :   1.0980

Dispersion correction           -0.010741409
FINAL SINGLE POINT ENERGY      -458.882071166407

DIPOLE MOMENT
-------------
                                X             Y             Z
Electronic contribution:     -0.02509      -0.24388       0.00968
Nuclear contribution   :      0.14283       1.16753      -0.10320
                        -----------------------------------------
Total Dipole Moment    :      0.11775       0.92365      -0.09352
                        -----------------------------------------
Magnitude (a.u.)       :      0.93581
Magnitude (Debye)      :      2.37864

VIBRATIONAL FREQUENCIES
-----------------------

Scaling factor for frequencies =  1.000000000 (already applied!)

   0:         0.00 cm**-1
   1:         0.00 cm**-1
   2:         0.00 cm**-1
   3:         0.00 cm**-1
   4:         0.00 cm**-1
   5:         0.00 cm**-1
   6:        24.36 cm**-1
   7:        38.09 cm**-1
   8:        57.16 cm**-1
   9:        78.26 cm**-1
  10:       103.57 cm**-1
  11:       142.27 cm**-1
  12:       199.42 cm**-1
  13:       222.69 cm**-1
  14:       236.62 cm**-1
  15:       259.96 cm**-1
  16:       283.03 cm**-1
  17:       284.81 cm**-1
  18:       298.36 cm**-1
  19:       307.92 cm**-1
  20:       327.02 cm**-1
  21:       333.56 cm**-1
  22:       350.43 cm**-1
  23:       421.44 cm**-1
  24:       450.79 cm**-1
  25:       486.95 cm**-1
  26:       499.61 cm**-1
  27:       530.61 cm**-1
  28:       582.23 cm**-1
  29:       653.47 cm**-1
  30:       781.25 cm**-1
  31:       831.59 cm**-1
  32:       914.71 cm**-1
  33:       938.26 cm**-1
  34:       983.84 cm**-1
  35:      1102.53 cm**-1
  36:      1631.92 cm**-1
  37:      1642.46 cm**-1
  38:      1653.59 cm**-1
  39:      1669.73 cm**-1
  40:      1684.28 cm**-1
  41:      1713.29 cm**-1
  42:      2919.60 cm**-1
  43:      3041.77 cm**-1
  44:      3106.81 cm**-1
  45:      3239.24 cm**-1
  46:      3327.58 cm**-1
  47:      3344.56 cm**-1
  48:      3556.48 cm**-1
  49:      3761.26 cm**-1
  50:      3762.50 cm**-1
  51:      3763.47 cm**-1
  52:      3763.84 cm**-1
  53:      3766.16 cm**-1

IR SPECTRUM
-----------

 Mode    freq (cm**-1)   T**2         TX         TY         TZ
-------------------------------------------------------------------
   6:        24.36    1.098590  (  1.038178   0.143973   0.006915)
   7:        38.09    0.858229  (  0.146743  -0.140533   0.903851)
   8:        57.16    2.160605  ( -0.781706  -0.157283  -1.234829)
   9:        78.26    0.792399  (  0.801071  -0.366633  -0.127530)
  10:       103.57    4.922800  ( -0.493531  -1.069860  -1.880061)
  11:       142.27    0.427368  (  0.165074  -0.631560  -0.035361)
  12:       199.42    2.858033  ( -0.960551  -1.314179  -0.456407)
  13:       222.69   57.354635  (  7.183719   2.391661  -0.169638)
  14:       236.62   36.817030  ( -2.039129   4.910779   2.922881)
  15:       259.96   88.761069  (  2.605680  -9.038537  -0.525690)
  16:       283.03   59.516399  ( -3.165532  -6.518851  -2.645825)
  17:       284.81   11.087979  ( -0.120464  -3.317263  -0.263124)
  18:       298.36  115.876631  ( -8.312577  -5.543817  -4.005470)
  19:       307.92  119.729751  (  9.368015  -4.728951   3.099526)
  20:       327.02   15.206170  ( -1.202505   1.673475   3.310534)
  21:       333.56   50.993715  ( -3.448881   6.136073   1.203140)
  22:       350.43   73.651480  ( -5.021230  -0.858112   6.906690)
  23:       421.44   33.881157  (  4.538579   2.366475   2.771688)
  24:       450.79   46.532009  ( -1.096867   4.366907  -5.124355)
  25:       486.95   47.985884  ( -4.441277  -3.188651   4.253640)
  26:       499.61   10.005093  (  0.993282  -2.994305   0.229396)
  27:       530.61   33.346261  (  4.449755  -1.931664  -3.132829)
  28:       582.23    4.453831  (  1.717890   1.214163  -0.168794)
  29:       653.47   79.994244  (  1.236954   4.332632  -7.726091)
  30:       781.25  148.828626  (  2.889020  -9.583757  -6.973793)
  31:       831.59  124.612804  ( -1.837809  -7.338539   8.208600)
  32:       914.71  207.610939  ( 12.703236   1.599419   6.609129)
  33:       938.26   10.227515  (  1.195406   0.303687   2.950643)
  34:       983.84   80.975045  (  2.276280  -7.967995  -3.507798)
  35:      1102.53   21.469692  (  2.904795   0.951094  -3.482424)
  36:      1631.92   52.973022  ( -5.484665  -2.770892  -3.900465)
  37:      1642.46   83.396016  ( -4.572820  -1.662389   7.727988)
  38:      1653.59   73.701694  ( -3.163718   7.916769  -1.008636)
  39:      1669.73    4.605828  (  2.121914   0.104709   0.303886)
  40:      1684.28   38.038414  (  5.141465  -3.314745   0.784997)
  41:      1713.29   16.916359  (  3.054637  -2.298888   1.516795)
  42:      2919.60  379.484812  (  2.084396  19.356625  -0.679111)
  43:      3041.77  2800.439215  (-48.559658   5.354563  20.340293)
  44:      3106.81  727.191858  ( -2.299903 -26.865900   0.354600)
  45:      3239.24  419.715327  ( -0.030695 -20.237398   3.187805)
  46:      3327.58  1102.623972  (-26.495413 -10.044775 -17.312411)
  47:      3344.56  408.964534  ( -9.888462  14.133341 -10.556114)
  48:      3556.48  364.531450  (  4.960824  18.150138   3.239468)
  49:      3761.26   56.436538  ( -3.308276  -5.193908   4.302926)
  50:      3762.50   46.902418  (  0.547346   1.992181  -6.529475)
  51:      3763.47   30.466454  (  3.850102   2.799373   2.794043)
  52:      3763.84   56.144675  ( -4.591862   5.312699   2.614327)
  53:      3766.16   40.030767  ( -4.129903   2.508456  -4.084399)

--------------------------
THERMOCHEMISTRY AT 298.15K
--------------------------

Temperature         ... 298.15 K
Pressure            ... 1.00 atm
Total Mass          ... 108.09 AMU

Throughout the following assumptions are being made:
  (1) The electronic state is orbitally nondegenerate
  (2) There are no thermally accessible electronically excited states
  (3) Hindered rotations indicated by low frequency modes are not
      treated as such but are treated as vibrations and this may
      cause some error
  (4) All equations used are the standard statistical mechanics
      equations for an ideal gas
  (5) All vibrations are strictly harmonic

freq.      24.36  E(vib)   ...       0.56
freq.      38.09  E(vib)   ...       0.54
freq.      57.16  E(vib)   ...       0.51
freq.      78.26  E(vib)   ...       0.49
freq.     103.57  E(vib)   ...       0.46
freq.     142.27  E(vib)   ...       0.41
freq.     199.42  E(vib)   ...       0.35
freq.     222.69  E(vib)   ...       0.33
freq.     236.62  E(vib)   ...       0.32
freq.     259.96  E(vib)   ...       0.30
freq.     283.03  E(vib)   ...       0.28
freq.     284.81  E(vib)   ...       0.28
freq.     298.36  E(vib)   ...       0.26
freq.     307.92  E(vib)   ...       0.26
freq.     327.02  E(vib)   ...       0.24
freq.     333.56  E(vib)   ...       0.24
freq.     350.43  E(vib)   ...       0.23
freq.     421.44  E(vib)   ...       0.18
freq.     450.79  E(vib)   ...       0.17
freq.     486.95  E(vib)   ...       0.15
freq.     499.61  E(vib)   ...       0.14
freq.     530.61  E(vib)   ...       0.13
freq.     582.23  E(vib)   ...       0.11
freq.     653.47  E(vib)   ...       0.08
freq.     781.25  E(vib)   ...       0.05
freq.     831.59  E(vib)   ...       0.04
freq.     914.71  E(vib)   ...       0.03
freq.     938.26  E(vib)   ...       0.03
freq.     983.84  E(vib)   ...       0.02
freq.    1102.53  E(vib)   ...       0.02
freq.    1631.92  E(vib)   ...       0.00
freq.    1642.46  E(vib)   ...       0.00
freq.    1653.59  E(vib)   ...       0.00
freq.    1669.73  E(vib)   ...       0.00
freq.    1684.28  E(vib)   ...       0.00
freq.    1713.29  E(vib)   ...       0.00
freq.    2919.60  E(vib)   ...       0.00
freq.    3041.77  E(vib)   ...       0.00
freq.    3106.81  E(vib)   ...       0.00
freq.    3239.24  E(vib)   ...       0.00
freq.    3327.58  E(vib)   ...       0.00
freq.    3344.56  E(vib)   ...       0.00
freq.    3556.48  E(vib)   ...       0.00
freq.    3761.26  E(vib)   ...       0.00
freq.    3762.50  E(vib)   ...       0.00
freq.    3763.47  E(vib)   ...       0.00
freq.    3763.84  E(vib)   ...       0.00
freq.    3766.16  E(vib)   ...       0.00

------------
INNER ENERGY
------------

The inner energy is: U= E(el) + E(ZPE) + E(vib) + E(rot) + E(trans)
    E(el)   - is the total energy from the electronic structure calculation
              = E(kin-el) + E(nuc-el) + E(el-el) + E(nuc-nuc)
    E(ZPE)  - the the zero temperature vibrational energy from the frequency calculation
    E(vib)  - the the finite temperature correction to E(ZPE) due to population
              of excited vibrational states
    E(rot)  - is the rotational thermal energy
    E(trans)- is the translational thermal energy

Summary of contributions to the inner energy U:
Electronic energy                ...   -458.88207119 Eh
Zero point energy                ...      0.14596988 Eh      91.60 kcal/mol
Thermal vibrational correction   ...      0.01148590 Eh       7.21 kcal/mol
Thermal rotational correction    ...      0.00141627 Eh       0.89 kcal/mol
Thermal translational correction ...      0.00141627 Eh       0.89 kcal/mol
-----------------------------------------------------------------------
Total thermal energy                   -458.72178286 Eh

Summary of corrections to the electronic energy:
(perhaps to be used in another calculation)
Total thermal correction                  0.01431844 Eh       8.98 kcal/mol
Non-thermal (ZPE) correction              0.14596988 Eh      91.60 kcal/mol
-----------------------------------------------------------------------
Total correction                          0.16028833 Eh     100.58 kcal/mol

--------
ENTHALPY
--------

The enthalpy is H = U + kB*T
                kB is Boltzmann's constant
Total free energy                 ...   -458.72178286 Eh
Thermal Enthalpy correction       ...      0.00094421 Eh       0.59 kcal/mol
-----------------------------------------------------------------------
Total Enthalpy                    ...   -458.72083865 Eh

Note: Only C1 symmetry has been detected, increase convergence thresholds
      if your molecule has a higher symmetry. Symmetry factor of 1.0 is
      used for the rotational entropy correction.

Note: Rotational entropy computed according to Herzberg
Infrared and Raman Spectra, Chapter V,1, Van Nostrand Reinhold, 1945
Point Group:  C1, Symmetry Number:   1
Rotational constants in cm-1:     0.065049     0.038530     0.028178

Vibrational entropy computed according to the QRRHO of S. Grimme
Chem.Eur.J. 2012 18 9955

-------
ENTROPY
-------

The entropy contributions are T*S = T*(S(el)+S(vib)+S(rot)+S(trans))
     S(el)   - electronic entropy
     S(vib)  - vibrational entropy
     S(rot)  - rotational entropy
     S(trans)- translational entropy
The entropies will be listed as mutliplied by the temperature to get
units of energy

Electronic entropy                ...      0.00000000 Eh      0.00 kcal/mol
Vibrational entropy               ...      0.02054505 Eh     12.89 kcal/mol
Rotational entropy                ...      0.01402313 Eh      8.80 kcal/mol
Translational entropy             ...      0.01898142 Eh     11.91 kcal/mol
-----------------------------------------------------------------------
Final entropy term                ...      0.05354961 Eh     33.60 kcal/mol

In case the symmetry of your molecule has not been determined correctly
or in case you have a reason to use a different symmetry number we print
out the resulting rotational entropy values for sn=1,12 :
 --------------------------------------------------------
|  sn= 1 | S(rot)=       0.01402313 Eh      8.80 kcal/mol|
|  sn= 2 | S(rot)=       0.01336868 Eh      8.39 kcal/mol|
|  sn= 3 | S(rot)=       0.01298584 Eh      8.15 kcal/mol|
|  sn= 4 | S(rot)=       0.01271422 Eh      7.98 kcal/mol|
|  sn= 5 | S(rot)=       0.01250353 Eh      7.85 kcal/mol|
|  sn= 6 | S(rot)=       0.01233139 Eh      7.74 kcal/mol|
|  sn= 7 | S(rot)=       0.01218584 Eh      7.65 kcal/mol|
|  sn= 8 | S(rot)=       0.01205976 Eh      7.57 kcal/mol|
|  sn= 9 | S(rot)=       0.01194855 Eh      7.50 kcal/mol|
|  sn=10 | S(rot)=       0.01184908 Eh      7.44 kcal/mol|
|  sn=11 | S(rot)=       0.01175909 Eh      7.38 kcal/mol|
|  sn=12 | S(rot)=       0.01167693 Eh      7.33 kcal/mol|
 --------------------------------------------------------

                             ****ORCA TERMINATED NORMALLY****
TOTAL RUN TIME: 0 days 0 hours 16 minutes 38 seconds 329 msec
