                         Program Version 4.2.0 -  RELEASE  -
|  1> #
|  2> # 08_H2O_6_cage tpss/aug-cc-pvt(+d)z
|  3> #
|  4> ! tpss d3bj aug-cc-pvt(+d)z def2/j grid4 nofinalgrid opt xyzfile numfreq
|  5>
|  6> *xyz 0 1
|  7> O	0.862065	-1.728538	-0.448765
|  8> H	1.679686	-1.216793	-0.290371
|  9> H	1.141594	-2.607406	-0.70991
| 10> O	-0.751083	0.359939	-1.648316
| 11> H	-0.283702	-0.473988	-1.502279
| 12> H	-1.624922	0.21572	-1.247934
| 13> O	0.590537	1.75631	0.198185
| 14> H	0.069166	1.374794	-0.548651
| 15> H	0.493944	2.707937	0.134574
| 16> O	-0.675492	-0.446436	1.665684
| 17> H	-0.188802	-1.063799	1.102054
| 18> H	-0.260662	0.405216	1.474464
| 19> O	2.803582	0.112403	0.084677
| 20> H	2.165098	0.844551	0.158067
| 21> H	3.282044	0.106258	0.915526
| 22> O	-2.901034	0.010949	0.089937
| 23> H	-2.258917	-0.224605	0.785219
| 24> H	-3.643112	-0.584893	0.198028
| 25> *
| 26>
| 27> %maxcore 5000
| 28>
| 29> %pal
| 30> nprocs 24
| 31> end
| 32>
| 33>
| 34>                          ****END OF INPUT****
 Total Charge           Charge          ....    0
 Multiplicity           Mult            ....    1
 Number of Electrons    NEL             ....   60
Dispersion correction           -0.012098164
FINAL SINGLE POINT ENERGY      -458.879131671364
Dispersion correction            ... done
Dispersion correction           -0.012017140
FINAL SINGLE POINT ENERGY      -458.880618473210
Dispersion correction            ... done
Dispersion correction           -0.012133952
FINAL SINGLE POINT ENERGY      -458.880943494891
Dispersion correction            ... done
FINAL SINGLE POINT ENERGY      -458.881180161047
FINAL SINGLE POINT ENERGY      -458.881200025026
FINAL SINGLE POINT ENERGY      -458.881235210643
FINAL SINGLE POINT ENERGY      -458.881257499106
FINAL SINGLE POINT ENERGY      -458.881284999801
FINAL SINGLE POINT ENERGY      -458.881305185783
FINAL SINGLE POINT ENERGY      -458.881303422043
FINAL SINGLE POINT ENERGY      -458.881305565193
FINAL SINGLE POINT ENERGY      -458.881308137238
FINAL SINGLE POINT ENERGY      -458.881309922984
FINAL SINGLE POINT ENERGY      -458.881309371151
FINAL SINGLE POINT ENERGY      -458.881305130145
FINAL SINGLE POINT ENERGY      -458.881298753214
FINAL SINGLE POINT ENERGY      -458.881301733335
Dispersion correction            ... done
Dispersion correction           -0.012348053
FINAL SINGLE POINT ENERGY      -458.881301873336
Dispersion correction            ... done
Dispersion correction           -0.012348785
FINAL SINGLE POINT ENERGY      -458.881304784444
Dispersion correction            ... done
                    ***********************HURRAY********************

CARTESIAN COORDINATES (ANGSTROEM)
---------------------------------
  O      0.821443   -1.677395   -0.318386
  H      1.657740   -1.132019   -0.263097
  H      1.100529   -2.581158   -0.519856
  O     -0.706651    0.408997   -1.613185
  H     -0.246587   -0.444204   -1.473491
  H     -1.594125    0.263796   -1.194290
  O      0.607164    1.668814    0.294256
  H      0.074879    1.298625   -0.488342
  H      0.533435    2.631916    0.242868
  O     -0.794066   -0.469385    1.727563
  H     -0.266516   -1.072160    1.159739
  H     -0.357913    0.393627    1.579765
  O      2.796637    0.139404   -0.145088
  H      2.132273    0.858424    0.034657
  H      3.365458    0.115969    0.637569
  O     -2.865356    0.041176    0.028450
  H     -2.235445   -0.231035    0.751185
  H     -3.522908   -0.665774   -0.030127

 Multiplicity           Mult            ....    1
 Number of Electrons    NEL             ....   60
 Basis Dimension        Dim             ....  552

ORBITAL ENERGIES
----------------

  NO   OCC          E(Eh)            E(eV)
   0   2.0000     -18.900972      -514.3216
   1   2.0000     -18.897971      -514.2399
   2   2.0000     -18.897441      -514.2255
   3   2.0000     -18.880783      -513.7722
   4   2.0000     -18.879276      -513.7312
   5   2.0000     -18.876345      -513.6515
   6   2.0000      -0.966922       -26.3113
   7   2.0000      -0.953959       -25.9585
   8   2.0000      -0.949618       -25.8404
   9   2.0000      -0.941080       -25.6081
  10   2.0000      -0.933758       -25.4089
  11   2.0000      -0.923598       -25.1324
  12   2.0000      -0.510048       -13.8791
  13   2.0000      -0.494522       -13.4566
  14   2.0000      -0.484705       -13.1895
  15   2.0000      -0.482021       -13.1165
  16   2.0000      -0.468563       -12.7502
  17   2.0000      -0.464155       -12.6303
  18   2.0000      -0.395943       -10.7742
  19   2.0000      -0.367656       -10.0044
  20   2.0000      -0.361440        -9.8353
  21   2.0000      -0.345072        -9.3899
  22   2.0000      -0.343218        -9.3394
  23   2.0000      -0.320497        -8.7212
  24   2.0000      -0.286876        -7.8063
  25   2.0000      -0.284788        -7.7495
  26   2.0000      -0.280671        -7.6375
  27   2.0000      -0.268824        -7.3151
  28   2.0000      -0.261354        -7.1118
  29   2.0000      -0.259491        -7.0611
  30   0.0000      -0.039339        -1.0705
  31   0.0000      -0.014604        -0.3974
  32   0.0000      -0.012631        -0.3437
  33   0.0000       0.002202         0.0599
  34   0.0000       0.017339         0.4718

MULLIKEN ATOMIC CHARGES
-----------------------
   0 O :   -0.521466
   1 H :    0.335188
   2 H :    0.069820
   3 O :   -0.458131
   4 H :    0.261957
   5 H :    0.267608
   6 O :   -0.441434
   7 H :    0.359107
   8 H :    0.052915
   9 O :   -0.561211
  10 H :    0.361331
  11 H :    0.276429
  12 O :   -0.374978
  13 H :    0.287430
  14 H :    0.107439
  15 O :   -0.431781
  16 H :    0.276245
  17 H :    0.133531
Sum of atomic charges:   -0.0000000

LOEWDIN ATOMIC CHARGES
----------------------
   0 O :    1.112780
   1 H :   -0.646418
   2 H :   -0.437776
   3 O :    1.128870
   4 H :   -0.554593
   5 H :   -0.622620
   6 O :    1.116004
   7 H :   -0.653355
   8 H :   -0.425745
   9 O :    1.109625
  10 H :   -0.592949
  11 H :   -0.552338
  12 O :    1.108949
  13 H :   -0.640157
  14 H :   -0.443007
  15 O :    1.094554
  16 H :   -0.646045
  17 H :   -0.455778

  Mayer bond orders larger than 0.100000
B(  0-O ,  1-H ) :   0.7320 B(  0-O ,  2-H ) :   1.0634 B(  1-H , 12-O ) :   0.1095
B(  3-O ,  4-H ) :   0.8722 B(  3-O ,  5-H ) :   0.8555 B(  3-O ,  7-H ) :   0.1334
B(  6-O ,  7-H ) :   0.6560 B(  6-O ,  8-H ) :   1.0891 B(  9-O , 10-H ) :   0.7618
B(  9-O , 11-H ) :   0.8531 B( 12-O , 13-H ) :   0.7987 B( 12-O , 14-H ) :   1.0780
B( 15-O , 16-H ) :   0.8148 B( 15-O , 17-H ) :   1.0639

Dispersion correction           -0.012348841
FINAL SINGLE POINT ENERGY      -458.881310112920

DIPOLE MOMENT
-------------
                                X             Y             Z
Electronic contribution:     -0.10773       0.20982      -0.13554
Nuclear contribution   :      0.76784      -0.65525       0.40732
                        -----------------------------------------
Total Dipole Moment    :      0.66011      -0.44543       0.27178
                        -----------------------------------------
Magnitude (a.u.)       :      0.84144
Magnitude (Debye)      :      2.13876

VIBRATIONAL FREQUENCIES
-----------------------

Scaling factor for frequencies =  1.000000000 (already applied!)

   0:         0.00 cm**-1
   1:         0.00 cm**-1
   2:         0.00 cm**-1
   3:         0.00 cm**-1
   4:         0.00 cm**-1
   5:         0.00 cm**-1
   6:        53.32 cm**-1
   7:        65.86 cm**-1
   8:        84.26 cm**-1
   9:       103.96 cm**-1
  10:       112.73 cm**-1
  11:       137.32 cm**-1
  12:       189.53 cm**-1
  13:       232.04 cm**-1
  14:       247.93 cm**-1
  15:       250.06 cm**-1
  16:       252.48 cm**-1
  17:       265.67 cm**-1
  18:       271.29 cm**-1
  19:       300.99 cm**-1
  20:       317.49 cm**-1
  21:       329.60 cm**-1
  22:       422.20 cm**-1
  23:       443.51 cm**-1
  24:       470.72 cm**-1
  25:       494.60 cm**-1
  26:       517.44 cm**-1
  27:       565.29 cm**-1
  28:       625.28 cm**-1
  29:       675.12 cm**-1
  30:       735.41 cm**-1
  31:       794.36 cm**-1
  32:       867.23 cm**-1
  33:       873.68 cm**-1
  34:       937.10 cm**-1
  35:      1089.98 cm**-1
  36:      1641.80 cm**-1
  37:      1656.04 cm**-1
  38:      1668.47 cm**-1
  39:      1678.28 cm**-1
  40:      1689.85 cm**-1
  41:      1706.52 cm**-1
  42:      2869.60 cm**-1
  43:      3144.35 cm**-1
  44:      3206.54 cm**-1
  45:      3273.13 cm**-1
  46:      3330.83 cm**-1
  47:      3495.16 cm**-1
  48:      3551.83 cm**-1
  49:      3584.06 cm**-1
  50:      3760.29 cm**-1
  51:      3765.36 cm**-1
  52:      3768.17 cm**-1
  53:      3769.99 cm**-1

IR SPECTRUM
-----------

 Mode    freq (cm**-1)   T**2         TX         TY         TZ
-------------------------------------------------------------------
   6:        53.32    1.359737  ( -1.137245  -0.115214   0.230514)
   7:        65.86    3.511657  (  1.651529  -0.753344  -0.465382)
   8:        84.26    0.459064  ( -0.268972  -0.303599   0.542721)
   9:       103.96    0.496563  ( -0.135254  -0.613256  -0.319666)
  10:       112.73    2.570309  (  1.139319  -0.053248  -1.126688)
  11:       137.32    1.784880  ( -1.114173  -0.566974   0.471210)
  12:       189.53   10.223699  ( -3.013316   0.639381  -0.857216)
  13:       232.04   17.184508  (  3.879984   1.273483   0.713075)
  14:       247.93    6.898785  ( -2.162572  -1.001546  -1.104072)
  15:       250.06   32.273576  ( -0.820938   0.915033   5.546382)
  16:       252.48   23.645871  (  1.828882   2.595843  -3.682752)
  17:       265.67   56.746407  ( -5.589279   4.820710   1.505697)
  18:       271.29   61.375173  ( -7.815094   0.249112   0.487252)
  19:       300.99   81.383672  ( -8.380203  -3.024989   1.416092)
  20:       317.49   23.320564  ( -3.518353  -2.175362  -2.491898)
  21:       329.60   53.679439  ( -1.923076   2.071406   6.759474)
  22:       422.20   45.602232  (  3.924724   0.736519   5.445761)
  23:       443.51   80.131467  (  7.624706  -4.197552  -2.091860)
  24:       470.72   26.221445  (  4.785421   1.326210   1.249943)
  25:       494.60   93.915219  ( -2.269821   1.440865  -9.310588)
  26:       517.44   22.486829  ( -0.411386   4.346915  -1.849843)
  27:       565.29  219.636110  ( -6.559538 -12.102151  -5.490584)
  28:       625.28   81.424430  ( -8.715455   2.315184  -0.324333)
  29:       675.12  145.562604  ( -4.576875   5.148991  -9.904681)
  30:       735.41    8.291891  (  1.627876  -1.583385   1.770538)
  31:       794.36  184.741133  ( -5.649534  -4.002818 -11.696211)
  32:       867.23   67.567278  ( -3.205440   3.585484  -6.666088)
  33:       873.68  195.370763  (-10.963629  -1.811206   8.478746)
  34:       937.10   35.423468  (  5.057961  -0.240247  -3.127744)
  35:      1089.98   50.485808  (  3.851641   0.755176  -5.922869)
  36:      1641.80   73.633848  (  3.447142   1.053285  -7.787275)
  37:      1656.04   69.495329  ( -4.346597  -6.655331   2.511771)
  38:      1668.47   64.461015  ( -4.972346   6.253501  -0.794050)
  39:      1678.28   37.775636  ( -1.810152  -5.826059   0.745672)
  40:      1689.85   57.817461  (  6.116604   1.268765  -4.335302)
  41:      1706.52   26.755269  ( -1.946409  -1.129489   4.657362)
  42:      2869.60  934.856121  ( 20.190842  13.832074  18.326477)
  43:      3144.35  914.016685  (-16.686521 -24.649568  -5.289186)
  44:      3206.54  716.722203  (-18.660217   2.852489 -18.983725)
  45:      3273.13  759.998737  (-26.032695   8.288036   3.688630)
  46:      3330.83  713.725432  (-25.200179  -1.117398   8.799308)
  47:      3495.16  260.955729  ( -5.969982   5.401588  14.004924)
  48:      3551.83  317.881122  ( 14.392308 -10.502477   0.663749)
  49:      3584.06  332.993142  ( -0.778336 -18.201430   1.046554)
  50:      3760.29   52.421481  (  5.928064  -2.684409   3.173876)
  51:      3765.36   33.532802  (  1.332817   5.370001   1.708651)
  52:      3768.17   45.503433  (  5.485648   2.988405   2.545688)
  53:      3769.99   45.847943  (  1.178537   6.570838   1.132730)

--------------------------
THERMOCHEMISTRY AT 298.15K
--------------------------

Temperature         ... 298.15 K
Pressure            ... 1.00 atm
Total Mass          ... 108.09 AMU

Throughout the following assumptions are being made:
  (1) The electronic state is orbitally nondegenerate
  (2) There are no thermally accessible electronically excited states
  (3) Hindered rotations indicated by low frequency modes are not
      treated as such but are treated as vibrations and this may
      cause some error
  (4) All equations used are the standard statistical mechanics
      equations for an ideal gas
  (5) All vibrations are strictly harmonic

freq.      53.32  E(vib)   ...       0.52
freq.      65.86  E(vib)   ...       0.50
freq.      84.26  E(vib)   ...       0.48
freq.     103.96  E(vib)   ...       0.46
freq.     112.73  E(vib)   ...       0.45
freq.     137.32  E(vib)   ...       0.42
freq.     189.53  E(vib)   ...       0.36
freq.     232.04  E(vib)   ...       0.32
freq.     247.93  E(vib)   ...       0.31
freq.     250.06  E(vib)   ...       0.31
freq.     252.48  E(vib)   ...       0.30
freq.     265.67  E(vib)   ...       0.29
freq.     271.29  E(vib)   ...       0.29
freq.     300.99  E(vib)   ...       0.26
freq.     317.49  E(vib)   ...       0.25
freq.     329.60  E(vib)   ...       0.24
freq.     422.20  E(vib)   ...       0.18
freq.     443.51  E(vib)   ...       0.17
freq.     470.72  E(vib)   ...       0.15
freq.     494.60  E(vib)   ...       0.14
freq.     517.44  E(vib)   ...       0.13
freq.     565.29  E(vib)   ...       0.11
freq.     625.28  E(vib)   ...       0.09
freq.     675.12  E(vib)   ...       0.08
freq.     735.41  E(vib)   ...       0.06
freq.     794.36  E(vib)   ...       0.05
freq.     867.23  E(vib)   ...       0.04
freq.     873.68  E(vib)   ...       0.04
freq.     937.10  E(vib)   ...       0.03
freq.    1089.98  E(vib)   ...       0.02
freq.    1641.80  E(vib)   ...       0.00
freq.    1656.04  E(vib)   ...       0.00
freq.    1668.47  E(vib)   ...       0.00
freq.    1678.28  E(vib)   ...       0.00
freq.    1689.85  E(vib)   ...       0.00
freq.    1706.52  E(vib)   ...       0.00
freq.    2869.60  E(vib)   ...       0.00
freq.    3144.35  E(vib)   ...       0.00
freq.    3206.54  E(vib)   ...       0.00
freq.    3273.13  E(vib)   ...       0.00
freq.    3330.83  E(vib)   ...       0.00
freq.    3495.16  E(vib)   ...       0.00
freq.    3551.83  E(vib)   ...       0.00
freq.    3584.06  E(vib)   ...       0.00
freq.    3760.29  E(vib)   ...       0.00
freq.    3765.36  E(vib)   ...       0.00
freq.    3768.17  E(vib)   ...       0.00
freq.    3769.99  E(vib)   ...       0.00

------------
INNER ENERGY
------------

The inner energy is: U= E(el) + E(ZPE) + E(vib) + E(rot) + E(trans)
    E(el)   - is the total energy from the electronic structure calculation
              = E(kin-el) + E(nuc-el) + E(el-el) + E(nuc-nuc)
    E(ZPE)  - the the zero temperature vibrational energy from the frequency calculation
    E(vib)  - the the finite temperature correction to E(ZPE) due to population
              of excited vibrational states
    E(rot)  - is the rotational thermal energy
    E(trans)- is the translational thermal energy

Summary of contributions to the inner energy U:
Electronic energy                ...   -458.88131012 Eh
Zero point energy                ...      0.14645598 Eh      91.90 kcal/mol
Thermal vibrational correction   ...      0.01125245 Eh       7.06 kcal/mol
Thermal rotational correction    ...      0.00141627 Eh       0.89 kcal/mol
Thermal translational correction ...      0.00141627 Eh       0.89 kcal/mol
-----------------------------------------------------------------------
Total thermal energy                   -458.72076915 Eh

Summary of corrections to the electronic energy:
(perhaps to be used in another calculation)
Total thermal correction                  0.01408499 Eh       8.84 kcal/mol
Non-thermal (ZPE) correction              0.14645598 Eh      91.90 kcal/mol
-----------------------------------------------------------------------
Total correction                          0.16054098 Eh     100.74 kcal/mol

--------
ENTHALPY
--------

The enthalpy is H = U + kB*T
                kB is Boltzmann's constant
Total free energy                 ...   -458.72076915 Eh
Thermal Enthalpy correction       ...      0.00094421 Eh       0.59 kcal/mol
-----------------------------------------------------------------------
Total Enthalpy                    ...   -458.71982494 Eh

Note: Only C1 symmetry has been detected, increase convergence thresholds
      if your molecule has a higher symmetry. Symmetry factor of 1.0 is
      used for the rotational entropy correction.

Note: Rotational entropy computed according to Herzberg
Infrared and Raman Spectra, Chapter V,1, Van Nostrand Reinhold, 1945
Point Group:  C1, Symmetry Number:   1
Rotational constants in cm-1:     0.077728     0.039061     0.037436

Vibrational entropy computed according to the QRRHO of S. Grimme
Chem.Eur.J. 2012 18 9955

-------
ENTROPY
-------

The entropy contributions are T*S = T*(S(el)+S(vib)+S(rot)+S(trans))
     S(el)   - electronic entropy
     S(vib)  - vibrational entropy
     S(rot)  - rotational entropy
     S(trans)- translational entropy
The entropies will be listed as mutliplied by the temperature to get
units of energy

Electronic entropy                ...      0.00000000 Eh      0.00 kcal/mol
Vibrational entropy               ...      0.01983592 Eh     12.45 kcal/mol
Rotational entropy                ...      0.01379847 Eh      8.66 kcal/mol
Translational entropy             ...      0.01898142 Eh     11.91 kcal/mol
-----------------------------------------------------------------------
Final entropy term                ...      0.05261581 Eh     33.02 kcal/mol

In case the symmetry of your molecule has not been determined correctly
or in case you have a reason to use a different symmetry number we print
out the resulting rotational entropy values for sn=1,12 :
 --------------------------------------------------------
|  sn= 1 | S(rot)=       0.01379847 Eh      8.66 kcal/mol|
|  sn= 2 | S(rot)=       0.01314401 Eh      8.25 kcal/mol|
|  sn= 3 | S(rot)=       0.01276118 Eh      8.01 kcal/mol|
|  sn= 4 | S(rot)=       0.01248956 Eh      7.84 kcal/mol|
|  sn= 5 | S(rot)=       0.01227887 Eh      7.71 kcal/mol|
|  sn= 6 | S(rot)=       0.01210672 Eh      7.60 kcal/mol|
|  sn= 7 | S(rot)=       0.01196118 Eh      7.51 kcal/mol|
|  sn= 8 | S(rot)=       0.01183510 Eh      7.43 kcal/mol|
|  sn= 9 | S(rot)=       0.01172389 Eh      7.36 kcal/mol|
|  sn=10 | S(rot)=       0.01162441 Eh      7.29 kcal/mol|
|  sn=11 | S(rot)=       0.01153442 Eh      7.24 kcal/mol|
|  sn=12 | S(rot)=       0.01145227 Eh      7.19 kcal/mol|
 --------------------------------------------------------

                             ****ORCA TERMINATED NORMALLY****
TOTAL RUN TIME: 0 days 0 hours 17 minutes 32 seconds 737 msec
