                         Program Version 4.2.0 -  RELEASE  -
|  1> #
|  2> # 09_H2O_6_prism tpss/aug-cc-pvt(+d)z
|  3> #
|  4> ! tpss d3bj aug-cc-pvt(+d)z def2/j grid4 nofinalgrid opt xyzfile numfreq
|  5>
|  6> *xyz 0 1
|  7> O	-1.511782	-0.232325	1.434522
|  8> H	-0.6139	-0.631798	1.542476
|  9> H	-2.015087	-0.484249	2.21021
| 10> O	-1.744551	-0.350365	-1.322141
| 11> H	-1.89002	-0.475498	-0.368433
| 12> H	-2.508917	-0.726304	-1.761973
| 13> O	-0.568902	2.010658	-0.079448
| 14> H	-0.9578	1.52123	0.658817
| 15> H	-0.991476	1.598457	-0.84212
| 16> O	0.972064	-1.194842	1.413465
| 17> H	0.986177	-1.536208	0.500658
| 18> H	1.544338	-0.420911	1.334663
| 19> O	0.983916	-1.359847	-1.372465
| 20> H	0.077993	-1.073694	-1.552782
| 21> H	1.480193	-0.535792	-1.283351
| 22> O	2.003223	1.063257	-0.092296
| 23> H	1.144078	1.530799	-0.098089
| 24> H	2.67269	1.741694	-0.193152
| 25> *
| 26>
| 27> %maxcore 5000
| 28>
| 29> %pal
| 30> nprocs 24
| 31> end
| 32>
| 33>
| 34>                          ****END OF INPUT****
 Total Charge           Charge          ....    0
 Multiplicity           Mult            ....    1
 Number of Electrons    NEL             ....   60
Dispersion correction           -0.012523438
FINAL SINGLE POINT ENERGY      -458.878815762879
Dispersion correction            ... done
Dispersion correction           -0.012416650
FINAL SINGLE POINT ENERGY      -458.880208572404
Dispersion correction            ... done
Dispersion correction           -0.012517853
FINAL SINGLE POINT ENERGY      -458.880453746238
Dispersion correction            ... done
FINAL SINGLE POINT ENERGY      -458.880671713194
FINAL SINGLE POINT ENERGY      -458.880692837249
FINAL SINGLE POINT ENERGY      -458.880732224661
FINAL SINGLE POINT ENERGY      -458.880754988796
FINAL SINGLE POINT ENERGY      -458.880777315923
FINAL SINGLE POINT ENERGY      -458.880794209895
FINAL SINGLE POINT ENERGY      -458.880807499631
FINAL SINGLE POINT ENERGY      -458.880841357511
FINAL SINGLE POINT ENERGY      -458.880837494034
FINAL SINGLE POINT ENERGY      -458.880829661309
FINAL SINGLE POINT ENERGY      -458.880822121190
FINAL SINGLE POINT ENERGY      -458.880818112063
FINAL SINGLE POINT ENERGY      -458.880819202650
FINAL SINGLE POINT ENERGY      -458.880825259575
Dispersion correction            ... done
Dispersion correction           -0.012734228
FINAL SINGLE POINT ENERGY      -458.880832271082
Dispersion correction            ... done
Dispersion correction           -0.012731576
FINAL SINGLE POINT ENERGY      -458.880836738987
Dispersion correction            ... done
                    ***********************HURRAY********************

CARTESIAN COORDINATES (ANGSTROEM)
---------------------------------
  O     -1.446129   -0.200451    1.383342
  H     -0.539507   -0.646869    1.503681
  H     -1.993101   -0.464105    2.135821
  O     -1.672478   -0.338049   -1.327028
  H     -1.800755   -0.446481   -0.350819
  H     -2.446909   -0.732932   -1.751403
  O     -0.601958    2.098486   -0.028900
  H     -0.953313    1.541246    0.699248
  H     -1.015607    1.688039   -0.810433
  O      0.953814   -1.248105    1.416643
  H      0.963659   -1.549296    0.466702
  H      1.520581   -0.454668    1.366935
  O      0.987446   -1.410858   -1.320973
  H      0.075030   -1.110624   -1.523173
  H      1.489508   -0.573461   -1.245340
  O      1.906432    1.042469   -0.128143
  H      1.041215    1.538641   -0.106971
  H      2.594309    1.711280   -0.250626

 Multiplicity           Mult            ....    1
 Number of Electrons    NEL             ....   60
 Basis Dimension        Dim             ....  552

ORBITAL ENERGIES
----------------

  NO   OCC          E(Eh)            E(eV)
   0   2.0000     -18.904254      -514.4109
   1   2.0000     -18.902012      -514.3499
   2   2.0000     -18.891917      -514.0752
   3   2.0000     -18.890527      -514.0374
   4   2.0000     -18.882353      -513.8150
   5   2.0000     -18.872308      -513.5416
   6   2.0000      -0.968759       -26.3613
   7   2.0000      -0.955347       -25.9963
   8   2.0000      -0.952662       -25.9233
   9   2.0000      -0.944601       -25.7039
  10   2.0000      -0.935182       -25.4476
  11   2.0000      -0.924209       -25.1490
  12   2.0000      -0.511581       -13.9208
  13   2.0000      -0.495103       -13.4724
  14   2.0000      -0.488937       -13.3047
  15   2.0000      -0.478447       -13.0192
  16   2.0000      -0.467830       -12.7303
  17   2.0000      -0.465001       -12.6533
  18   2.0000      -0.390287       -10.6203
  19   2.0000      -0.381267       -10.3748
  20   2.0000      -0.360007        -9.7963
  21   2.0000      -0.353635        -9.6229
  22   2.0000      -0.343056        -9.3350
  23   2.0000      -0.319173        -8.6851
  24   2.0000      -0.290329        -7.9003
  25   2.0000      -0.286323        -7.7913
  26   2.0000      -0.276396        -7.5211
  27   2.0000      -0.275704        -7.5023
  28   2.0000      -0.270287        -7.3549
  29   2.0000      -0.253551        -6.8995
  30   0.0000      -0.040614        -1.1052
  31   0.0000      -0.016832        -0.4580
  32   0.0000      -0.010257        -0.2791
  33   0.0000       0.011000         0.2993
  34   0.0000       0.021409         0.5826

MULLIKEN ATOMIC CHARGES
-----------------------
   0 O :   -0.502903
   1 H :    0.308122
   2 H :    0.094757
   3 O :   -0.505026
   4 H :    0.338005
   5 H :    0.091717
   6 O :   -0.513720
   7 H :    0.326919
   8 H :    0.242859
   9 O :   -0.450563
  10 H :    0.315337
  11 H :    0.230569
  12 O :   -0.524080
  13 H :    0.331692
  14 H :    0.273890
  15 O :   -0.531182
  16 H :    0.369785
  17 H :    0.103823
Sum of atomic charges:   -0.0000000

LOEWDIN ATOMIC CHARGES
----------------------
   0 O :    1.121341
   1 H :   -0.655931
   2 H :   -0.425691
   3 O :    1.102861
   4 H :   -0.633725
   5 H :   -0.444444
   6 O :    1.112908
   7 H :   -0.582660
   8 H :   -0.516155
   9 O :    1.125589
  10 H :   -0.605955
  11 H :   -0.511011
  12 O :    1.101270
  13 H :   -0.603415
  14 H :   -0.574423
  15 O :    1.094229
  16 H :   -0.651213
  17 H :   -0.453574

  Mayer bond orders larger than 0.100000
B(  0-O ,  1-H ) :   0.6989 B(  0-O ,  2-H ) :   1.0426 B(  0-O ,  9-O ) :  -0.1343
B(  1-H ,  9-O ) :   0.1896 B(  3-O ,  4-H ) :   0.7422 B(  3-O ,  5-H ) :   1.0667
B(  6-O ,  7-H ) :   0.7975 B(  6-O ,  8-H ) :   0.9082 B(  9-O , 10-H ) :   0.7804
B(  9-O , 11-H ) :   0.9099 B( 12-O , 13-H ) :   0.8232 B( 12-O , 14-H ) :   0.8718
B( 15-O , 16-H ) :   0.7211 B( 15-O , 17-H ) :   1.0372

Dispersion correction           -0.012726516
FINAL SINGLE POINT ENERGY      -458.880839101171

DIPOLE MOMENT
-------------
                                X             Y             Z
Electronic contribution:      0.21574      -0.13269       0.02098
Nuclear contribution   :     -1.09800       0.51089       0.11964
                        -----------------------------------------
Total Dipole Moment    :     -0.88227       0.37820       0.14063
                        -----------------------------------------
Magnitude (a.u.)       :      0.97016
Magnitude (Debye)      :      2.46594

VIBRATIONAL FREQUENCIES
-----------------------

Scaling factor for frequencies =  1.000000000 (already applied!)

   0:         0.00 cm**-1
   1:         0.00 cm**-1
   2:         0.00 cm**-1
   3:         0.00 cm**-1
   4:         0.00 cm**-1
   5:         0.00 cm**-1
   6:        50.27 cm**-1
   7:        59.73 cm**-1
   8:        70.37 cm**-1
   9:        83.12 cm**-1
  10:        92.75 cm**-1
  11:       146.19 cm**-1
  12:       175.60 cm**-1
  13:       185.18 cm**-1
  14:       228.44 cm**-1
  15:       238.41 cm**-1
  16:       257.97 cm**-1
  17:       262.19 cm**-1
  18:       280.33 cm**-1
  19:       300.59 cm**-1
  20:       325.60 cm**-1
  21:       387.12 cm**-1
  22:       406.38 cm**-1
  23:       463.25 cm**-1
  24:       464.86 cm**-1
  25:       504.51 cm**-1
  26:       524.08 cm**-1
  27:       567.93 cm**-1
  28:       597.91 cm**-1
  29:       668.91 cm**-1
  30:       695.59 cm**-1
  31:       742.22 cm**-1
  32:       785.31 cm**-1
  33:       897.77 cm**-1
  34:       934.75 cm**-1
  35:      1105.71 cm**-1
  36:      1635.90 cm**-1
  37:      1650.20 cm**-1
  38:      1653.73 cm**-1
  39:      1681.45 cm**-1
  40:      1689.14 cm**-1
  41:      1712.17 cm**-1
  42:      2845.24 cm**-1
  43:      3195.45 cm**-1
  44:      3251.59 cm**-1
  45:      3325.91 cm**-1
  46:      3495.86 cm**-1
  47:      3510.96 cm**-1
  48:      3562.25 cm**-1
  49:      3626.24 cm**-1
  50:      3651.43 cm**-1
  51:      3766.98 cm**-1
  52:      3768.24 cm**-1
  53:      3770.20 cm**-1

IR SPECTRUM
-----------

 Mode    freq (cm**-1)   T**2         TX         TY         TZ
-------------------------------------------------------------------
   6:        50.27    0.385132  (  0.198807   0.137793  -0.571508)
   7:        59.73    1.250042  ( -1.041167  -0.239499  -0.329628)
   8:        70.37    1.582649  ( -0.008891  -0.017956   1.257874)
   9:        83.12    0.249561  ( -0.123338   0.422297  -0.236674)
  10:        92.75    1.110593  (  0.055587  -0.063267  -1.050476)
  11:       146.19    1.372332  ( -0.609006   0.966827   0.258243)
  12:       175.60   10.547437  (  1.669898   2.203939   1.703388)
  13:       185.18    1.502229  ( -0.895405   0.834755  -0.060529)
  14:       228.44    1.344379  (  0.641963  -0.660285   0.704475)
  15:       238.41   34.842637  (  4.656801  -2.868589   2.219920)
  16:       257.97   38.297752  (  4.607444  -3.341077  -2.430313)
  17:       262.19   41.308051  ( -0.663470  -1.989846   6.075226)
  18:       280.33   40.348746  ( -0.336299  -2.230862  -5.937921)
  19:       300.59   43.539704  ( -1.566082  -6.357753   0.816132)
  20:       325.60   24.868508  ( -4.845546   1.178389   0.024299)
  21:       387.12   45.351635  ( -5.164849   3.549772  -2.464769)
  22:       406.38    6.744228  ( -0.099488   2.594596   0.049021)
  23:       463.25   78.354997  (  5.970447  -6.050859  -2.468981)
  24:       464.86   48.958065  (  2.491733   0.330695   6.529929)
  25:       504.51   57.721604  ( -0.694158   0.938158  -7.507304)
  26:       524.08   35.073840  (  5.874063  -0.616398  -0.435055)
  27:       567.93  192.999946  (-13.577852  -0.681777  -2.859554)
  28:       597.91   33.627017  ( -3.124842  -4.140600  -2.591874)
  29:       668.91  141.152616  (  0.111455  -0.731795 -11.857684)
  30:       695.59  235.216929  ( -2.591343   6.623317  13.587992)
  31:       742.22  171.986043  ( -7.709493  10.403059   2.079935)
  32:       785.31  157.572104  (  6.571201  -9.556675   4.802226)
  33:       897.77   43.097143  ( -4.167221   4.446472  -2.441372)
  34:       934.75   50.639428  (  3.266157  -3.370690  -5.348840)
  35:      1105.71   45.143442  (  2.863614   4.677818   3.880873)
  36:      1635.90  122.381050  (  6.467165   8.718599   2.131395)
  37:      1650.20   88.505688  ( -2.449194  -6.397178   6.448507)
  38:      1653.73   33.969169  ( -3.851212   3.068888   3.117573)
  39:      1681.45   16.228490  (  3.879066  -1.085518  -0.054625)
  40:      1689.14  145.569471  (  2.553672  10.539284  -5.288830)
  41:      1712.17   45.446495  (  2.727912   0.748608  -6.119197)
  42:      2845.24  1109.211266  ( 30.918486 -12.259127  -1.724042)
  43:      3195.45  885.288121  ( 28.287387  -8.914877  -2.374196)
  44:      3251.59  432.864829  ( -7.147132   0.085813 -19.539088)
  45:      3325.91  602.319542  (  2.681489  -4.025618 -24.060830)
  46:      3495.86  279.712092  (-15.017909   6.961094   2.391162)
  47:      3510.96  320.359332  ( -3.111872 -12.729832  12.191266)
  48:      3562.25  306.760077  (-14.633870  -7.682572  -5.795516)
  49:      3626.24  180.388927  (  7.522642  11.076714  -1.051272)
  50:      3651.43  152.218628  (  4.151527   4.163976  10.846417)
  51:      3766.98   48.067233  (  0.825539  -1.159608  -6.785354)
  52:      3768.24   48.423273  (  6.679164   1.356986  -1.403792)
  53:      3770.20   43.461201  (  6.049749   1.622495   2.056515)

--------------------------
THERMOCHEMISTRY AT 298.15K
--------------------------

Temperature         ... 298.15 K
Pressure            ... 1.00 atm
Total Mass          ... 108.09 AMU

Throughout the following assumptions are being made:
  (1) The electronic state is orbitally nondegenerate
  (2) There are no thermally accessible electronically excited states
  (3) Hindered rotations indicated by low frequency modes are not
      treated as such but are treated as vibrations and this may
      cause some error
  (4) All equations used are the standard statistical mechanics
      equations for an ideal gas
  (5) All vibrations are strictly harmonic

freq.      50.27  E(vib)   ...       0.52
freq.      59.73  E(vib)   ...       0.51
freq.      70.37  E(vib)   ...       0.50
freq.      83.12  E(vib)   ...       0.48
freq.      92.75  E(vib)   ...       0.47
freq.     146.19  E(vib)   ...       0.41
freq.     175.60  E(vib)   ...       0.38
freq.     185.18  E(vib)   ...       0.37
freq.     228.44  E(vib)   ...       0.32
freq.     238.41  E(vib)   ...       0.32
freq.     257.97  E(vib)   ...       0.30
freq.     262.19  E(vib)   ...       0.29
freq.     280.33  E(vib)   ...       0.28
freq.     300.59  E(vib)   ...       0.26
freq.     325.60  E(vib)   ...       0.24
freq.     387.12  E(vib)   ...       0.20
freq.     406.38  E(vib)   ...       0.19
freq.     463.25  E(vib)   ...       0.16
freq.     464.86  E(vib)   ...       0.16
freq.     504.51  E(vib)   ...       0.14
freq.     524.08  E(vib)   ...       0.13
freq.     567.93  E(vib)   ...       0.11
freq.     597.91  E(vib)   ...       0.10
freq.     668.91  E(vib)   ...       0.08
freq.     695.59  E(vib)   ...       0.07
freq.     742.22  E(vib)   ...       0.06
freq.     785.31  E(vib)   ...       0.05
freq.     897.77  E(vib)   ...       0.03
freq.     934.75  E(vib)   ...       0.03
freq.    1105.71  E(vib)   ...       0.02
freq.    1635.90  E(vib)   ...       0.00
freq.    1650.20  E(vib)   ...       0.00
freq.    1653.73  E(vib)   ...       0.00
freq.    1681.45  E(vib)   ...       0.00
freq.    1689.14  E(vib)   ...       0.00
freq.    1712.17  E(vib)   ...       0.00
freq.    2845.24  E(vib)   ...       0.00
freq.    3195.45  E(vib)   ...       0.00
freq.    3251.59  E(vib)   ...       0.00
freq.    3325.91  E(vib)   ...       0.00
freq.    3495.86  E(vib)   ...       0.00
freq.    3510.96  E(vib)   ...       0.00
freq.    3562.25  E(vib)   ...       0.00
freq.    3626.24  E(vib)   ...       0.00
freq.    3651.43  E(vib)   ...       0.00
freq.    3766.98  E(vib)   ...       0.00
freq.    3768.24  E(vib)   ...       0.00
freq.    3770.20  E(vib)   ...       0.00

------------
INNER ENERGY
------------

The inner energy is: U= E(el) + E(ZPE) + E(vib) + E(rot) + E(trans)
    E(el)   - is the total energy from the electronic structure calculation
              = E(kin-el) + E(nuc-el) + E(el-el) + E(nuc-nuc)
    E(ZPE)  - the the zero temperature vibrational energy from the frequency calculation
    E(vib)  - the the finite temperature correction to E(ZPE) due to population
              of excited vibrational states
    E(rot)  - is the rotational thermal energy
    E(trans)- is the translational thermal energy

Summary of contributions to the inner energy U:
Electronic energy                ...   -458.88083911 Eh
Zero point energy                ...      0.14647708 Eh      91.92 kcal/mol
Thermal vibrational correction   ...      0.01146920 Eh       7.20 kcal/mol
Thermal rotational correction    ...      0.00141627 Eh       0.89 kcal/mol
Thermal translational correction ...      0.00141627 Eh       0.89 kcal/mol
-----------------------------------------------------------------------
Total thermal energy                   -458.72006029 Eh

Summary of corrections to the electronic energy:
(perhaps to be used in another calculation)
Total thermal correction                  0.01430175 Eh       8.97 kcal/mol
Non-thermal (ZPE) correction              0.14647708 Eh      91.92 kcal/mol
-----------------------------------------------------------------------
Total correction                          0.16077882 Eh     100.89 kcal/mol

--------
ENTHALPY
--------

The enthalpy is H = U + kB*T
                kB is Boltzmann's constant
Total free energy                 ...   -458.72006029 Eh
Thermal Enthalpy correction       ...      0.00094421 Eh       0.59 kcal/mol
-----------------------------------------------------------------------
Total Enthalpy                    ...   -458.71911608 Eh

Note: Only C1 symmetry has been detected, increase convergence thresholds
      if your molecule has a higher symmetry. Symmetry factor of 1.0 is
      used for the rotational entropy correction.

Note: Rotational entropy computed according to Herzberg
Infrared and Raman Spectra, Chapter V,1, Van Nostrand Reinhold, 1945
Point Group:  C1, Symmetry Number:   1
Rotational constants in cm-1:     0.056955     0.049387     0.046242

Vibrational entropy computed according to the QRRHO of S. Grimme
Chem.Eur.J. 2012 18 9955

-------
ENTROPY
-------

The entropy contributions are T*S = T*(S(el)+S(vib)+S(rot)+S(trans))
     S(el)   - electronic entropy
     S(vib)  - vibrational entropy
     S(rot)  - rotational entropy
     S(trans)- translational entropy
The entropies will be listed as mutliplied by the temperature to get
units of energy

Electronic entropy                ...      0.00000000 Eh      0.00 kcal/mol
Vibrational entropy               ...      0.02032640 Eh     12.75 kcal/mol
Rotational entropy                ...      0.01373480 Eh      8.62 kcal/mol
Translational entropy             ...      0.01898142 Eh     11.91 kcal/mol
-----------------------------------------------------------------------
Final entropy term                ...      0.05304262 Eh     33.28 kcal/mol

In case the symmetry of your molecule has not been determined correctly
or in case you have a reason to use a different symmetry number we print
out the resulting rotational entropy values for sn=1,12 :
 --------------------------------------------------------
|  sn= 1 | S(rot)=       0.01373480 Eh      8.62 kcal/mol|
|  sn= 2 | S(rot)=       0.01308035 Eh      8.21 kcal/mol|
|  sn= 3 | S(rot)=       0.01269751 Eh      7.97 kcal/mol|
|  sn= 4 | S(rot)=       0.01242589 Eh      7.80 kcal/mol|
|  sn= 5 | S(rot)=       0.01221520 Eh      7.67 kcal/mol|
|  sn= 6 | S(rot)=       0.01204306 Eh      7.56 kcal/mol|
|  sn= 7 | S(rot)=       0.01189751 Eh      7.47 kcal/mol|
|  sn= 8 | S(rot)=       0.01177143 Eh      7.39 kcal/mol|
|  sn= 9 | S(rot)=       0.01166023 Eh      7.32 kcal/mol|
|  sn=10 | S(rot)=       0.01156075 Eh      7.25 kcal/mol|
|  sn=11 | S(rot)=       0.01147076 Eh      7.20 kcal/mol|
|  sn=12 | S(rot)=       0.01138860 Eh      7.15 kcal/mol|
 --------------------------------------------------------

                             ****ORCA TERMINATED NORMALLY****
TOTAL RUN TIME: 0 days 0 hours 17 minutes 18 seconds 488 msec
