                         Program Version 4.2.0 -  RELEASE  -
|  1> #
|  2> # 01_H2O dsd-blyp/aug-cc-pvt(+d)z
|  3> #
|  4> ! rijk ri-dsd-blyp/2013 d3bj aug-cc-pvt(+d)z def2/jk def2-tzvp/c grid4 nofinalgrid opt xyzfile numfreq
|  5>
|  6> *xyz 0 1
|  7> O	0	0	0.12434822
|  8> H	0	-1.43139324	-0.98674827
|  9> H	0	1.43139324	-0.98674827
| 10> *
| 11>
| 12> %maxcore 5000
| 13>
| 14> %pal
| 15> nprocs 24
| 16> end
| 17>
| 18>
| 19>                          ****END OF INPUT****
 Total Charge           Charge          ....    0
 Multiplicity           Mult            ....    1
 Number of Electrons    NEL             ....   10
Dispersion correction            ... done
MP2 TOTAL ENERGY:      -76.083065556 Eh
Dispersion correction           -0.000519792
FINAL SINGLE POINT ENERGY       -76.083585347813
Dispersion correction            ... done
MP2 TOTAL ENERGY:      -76.118582957 Eh
Dispersion correction           -0.000548168
FINAL SINGLE POINT ENERGY       -76.119131125426
FINAL SINGLE POINT ENERGY       -76.159496741906
FINAL SINGLE POINT ENERGY       -76.204313842640
FINAL SINGLE POINT ENERGY       -76.252576376851
FINAL SINGLE POINT ENERGY       -76.302011862555
FINAL SINGLE POINT ENERGY       -76.348164900391
FINAL SINGLE POINT ENERGY       -76.382017864406
FINAL SINGLE POINT ENERGY       -76.388067267447
FINAL SINGLE POINT ENERGY       -76.390501299614
FINAL SINGLE POINT ENERGY       -76.390625625543
FINAL SINGLE POINT ENERGY       -76.390627275722
FINAL SINGLE POINT ENERGY       -76.390617795225
Dispersion correction            ... done
MP2 TOTAL ENERGY:      -76.390308197 Eh
Dispersion correction           -0.000319142
FINAL SINGLE POINT ENERGY       -76.390627339646
                    ***********************HURRAY********************

CARTESIAN COORDINATES (ANGSTROEM)
---------------------------------
  O      0.000000    0.000000   -0.225924
  H      0.000000   -0.759396   -0.811612
  H      0.000000    0.759396   -0.811612

 Multiplicity           Mult            ....    1
 Number of Electrons    NEL             ....   10
 Basis Dimension        Dim             ....   92

ORBITAL ENERGIES
----------------

  NO   OCC          E(Eh)            E(eV)
   0   2.0000     -20.057046      -545.7800
   1   2.0000      -1.235681       -33.6246
   2   2.0000      -0.656389       -17.8613
   3   2.0000      -0.520094       -14.1525
   4   2.0000      -0.445275       -12.1165
   5   0.0000       0.013110         0.3567
   6   0.0000       0.039142         1.0651
   7   0.0000       0.113823         3.0973
   8   0.0000       0.135907         3.6982
   9   0.0000       0.147332         4.0091

Dispersion correction            ... done

MULLIKEN ATOMIC CHARGES
-----------------------
   0 O :   -0.402404
   1 H :    0.201202
   2 H :    0.201202
Sum of atomic charges:   -0.0000000

LOEWDIN ATOMIC CHARGES
----------------------
   0 O :    1.033951
   1 H :   -0.516974
   2 H :   -0.516976

  Mayer bond orders larger than 0.100000
B(  0-O ,  1-H ) :   0.9865 B(  0-O ,  2-H ) :   0.9865

MP2 TOTAL ENERGY:      -76.390308196 Eh
Dispersion correction           -0.000319142
FINAL SINGLE POINT ENERGY       -76.390627338058

DIPOLE MOMENT
-------------
                                X             Y             Z
Electronic contribution:      0.00000       0.00000       0.24355
Nuclear contribution   :      0.00000      -0.00000      -0.97501
                        -----------------------------------------
Total Dipole Moment    :      0.00000       0.00000      -0.73146
                        -----------------------------------------
Magnitude (a.u.)       :      0.73146
Magnitude (Debye)      :      1.85923

VIBRATIONAL FREQUENCIES
-----------------------

Scaling factor for frequencies =  1.000000000 (already applied!)

   0:         0.00 cm**-1
   1:         0.00 cm**-1
   2:         0.00 cm**-1
   3:         0.00 cm**-1
   4:         0.00 cm**-1
   5:         0.00 cm**-1
   6:      1640.83 cm**-1
   7:      3841.07 cm**-1
   8:      3955.52 cm**-1

IR SPECTRUM
-----------

 Mode    freq (cm**-1)   T**2         TX         TY         TZ
-------------------------------------------------------------------
   6:      1640.83   75.502740  (  0.000000  -0.000010  -8.689231)
   7:      3841.07    5.952477  ( -0.000000   0.000532   2.439770)
   8:      3955.52   72.993389  ( -0.000000   8.543617  -0.000163)

--------------------------
THERMOCHEMISTRY AT 298.15K
--------------------------

Temperature         ... 298.15 K
Pressure            ... 1.00 atm
Total Mass          ... 18.02 AMU

Throughout the following assumptions are being made:
  (1) The electronic state is orbitally nondegenerate
  (2) There are no thermally accessible electronically excited states
  (3) Hindered rotations indicated by low frequency modes are not
      treated as such but are treated as vibrations and this may
      cause some error
  (4) All equations used are the standard statistical mechanics
      equations for an ideal gas
  (5) All vibrations are strictly harmonic

freq.    1640.83  E(vib)   ...       0.00
freq.    3841.07  E(vib)   ...       0.00
freq.    3955.52  E(vib)   ...       0.00

------------
INNER ENERGY
------------

The inner energy is: U= E(el) + E(ZPE) + E(vib) + E(rot) + E(trans)
    E(el)   - is the total energy from the electronic structure calculation
              = E(kin-el) + E(nuc-el) + E(el-el) + E(nuc-nuc)
    E(ZPE)  - the the zero temperature vibrational energy from the frequency calculation
    E(vib)  - the the finite temperature correction to E(ZPE) due to population
              of excited vibrational states
    E(rot)  - is the rotational thermal energy
    E(trans)- is the translational thermal energy

Summary of contributions to the inner energy U:
Electronic energy                ...    -76.39062734 Eh
Zero point energy                ...      0.02150002 Eh      13.49 kcal/mol
Thermal vibrational correction   ...      0.00000272 Eh       0.00 kcal/mol
Thermal rotational correction    ...      0.00141627 Eh       0.89 kcal/mol
Thermal translational correction ...      0.00141627 Eh       0.89 kcal/mol
-----------------------------------------------------------------------
Total thermal energy                    -76.36629205 Eh

Summary of corrections to the electronic energy:
(perhaps to be used in another calculation)
Total thermal correction                  0.00283527 Eh       1.78 kcal/mol
Non-thermal (ZPE) correction              0.02150002 Eh      13.49 kcal/mol
-----------------------------------------------------------------------
Total correction                          0.02433529 Eh      15.27 kcal/mol

--------
ENTHALPY
--------

The enthalpy is H = U + kB*T
                kB is Boltzmann's constant
Total free energy                 ...    -76.36629205 Eh
Thermal Enthalpy correction       ...      0.00094421 Eh       0.59 kcal/mol
-----------------------------------------------------------------------
Total Enthalpy                    ...    -76.36534784 Eh

Note: Rotational entropy computed according to Herzberg
Infrared and Raman Spectra, Chapter V,1, Van Nostrand Reinhold, 1945
Point Group:  Cs, Symmetry Number:   1
Rotational constants in cm-1:    27.448233    14.500050     9.487891

Vibrational entropy computed according to the QRRHO of S. Grimme
Chem.Eur.J. 2012 18 9955

-------
ENTROPY
-------

The entropy contributions are T*S = T*(S(el)+S(vib)+S(rot)+S(trans))
     S(el)   - electronic entropy
     S(vib)  - vibrational entropy
     S(rot)  - rotational entropy
     S(trans)- translational entropy
The entropies will be listed as mutliplied by the temperature to get
units of energy

Electronic entropy                ...      0.00000000 Eh      0.00 kcal/mol
Vibrational entropy               ...      0.00000307 Eh      0.00 kcal/mol
Rotational entropy                ...      0.00562245 Eh      3.53 kcal/mol
Translational entropy             ...      0.01644380 Eh     10.32 kcal/mol
-----------------------------------------------------------------------
Final entropy term                ...      0.02206932 Eh     13.85 kcal/mol

In case the symmetry of your molecule has not been determined correctly
or in case you have a reason to use a different symmetry number we print
out the resulting rotational entropy values for sn=1,12 :
 --------------------------------------------------------
|  sn= 1 | S(rot)=       0.00562245 Eh      3.53 kcal/mol|
|  sn= 2 | S(rot)=       0.00496799 Eh      3.12 kcal/mol|
|  sn= 3 | S(rot)=       0.00458516 Eh      2.88 kcal/mol|
|  sn= 4 | S(rot)=       0.00431354 Eh      2.71 kcal/mol|
|  sn= 5 | S(rot)=       0.00410285 Eh      2.57 kcal/mol|
|  sn= 6 | S(rot)=       0.00393071 Eh      2.47 kcal/mol|
|  sn= 7 | S(rot)=       0.00378516 Eh      2.38 kcal/mol|
|  sn= 8 | S(rot)=       0.00365908 Eh      2.30 kcal/mol|
|  sn= 9 | S(rot)=       0.00354787 Eh      2.23 kcal/mol|
|  sn=10 | S(rot)=       0.00344839 Eh      2.16 kcal/mol|
|  sn=11 | S(rot)=       0.00335840 Eh      2.11 kcal/mol|
|  sn=12 | S(rot)=       0.00327625 Eh      2.06 kcal/mol|
 --------------------------------------------------------

-------------------
GIBBS FREE ENERGY
-------------------

The Gibbs free energy is G = H - T*S

Total enthalpy                    ...    -76.36534784 Eh
Total entropy correction          ...     -0.02206932 Eh    -13.85 kcal/mol
-----------------------------------------------------------------------
Final Gibbs free energy         ...    -76.38741716 Eh

For completeness - the Gibbs free energy minus the electronic energy
G-E(el)                           ...      0.00321018 Eh      2.01 kcal/mol

                             ****ORCA TERMINATED NORMALLY****
TOTAL RUN TIME: 0 days 0 hours 1 minutes 36 seconds 26 msec
