                         Program Version 4.2.0 -  RELEASE  -
|  1> #
|  2> # 02_H2O_2 dsd-blyp/aug-cc-pvt(+d)z
|  3> #
|  4> ! rijk ri-dsd-blyp/2013 d3bj aug-cc-pvt(+d)z def2/jk def2-tzvp/c grid4 nofinalgrid opt xyzfile numfreq
|  5>
|  6> *xyz 0 1
|  7> O	0.12629641	2.81863838	0
|  8> H	-1.55012056	3.50228598	0
|  9> H	-0.11213325	1.01044862	0
| 10> O	-0.11743248	-2.68035303	0
| 11> H	0.7607884	-3.35371171	-1.4365769
| 12> H	0.7607884	-3.35371171	1.4365769
| 13> *
| 14>
| 15> %maxcore 5000
| 16>
| 17> %pal
| 18> nprocs 24
| 19> end
| 20>
| 21> %geom
| 22> maxiter 300
| 23> coordsys cartesian
| 24> end
| 25>
| 26>
| 27>                          ****END OF INPUT****
 Total Charge           Charge          ....    0
 Multiplicity           Mult            ....    1
 Number of Electrons    NEL             ....   20
Dispersion correction            ... done
MP2 TOTAL ENERGY:     -152.165742691 Eh
Dispersion correction           -0.001108355
FINAL SINGLE POINT ENERGY      -152.166851045640
Dispersion correction            ... done
MP2 TOTAL ENERGY:     -152.207295475 Eh
Dispersion correction           -0.001182224
FINAL SINGLE POINT ENERGY      -152.208477698669
FINAL SINGLE POINT ENERGY      -152.176878457349
FINAL SINGLE POINT ENERGY      -152.289532068336
FINAL SINGLE POINT ENERGY      -152.309441790632
FINAL SINGLE POINT ENERGY      -152.442897716112
FINAL SINGLE POINT ENERGY      -152.485917789888
FINAL SINGLE POINT ENERGY      -152.409816537066
FINAL SINGLE POINT ENERGY      -152.327173262664
FINAL SINGLE POINT ENERGY      -152.480489533323
FINAL SINGLE POINT ENERGY      -152.789702868298
FINAL SINGLE POINT ENERGY      -152.789704089540
FINAL SINGLE POINT ENERGY      -152.789706116185
FINAL SINGLE POINT ENERGY      -152.789706983703
FINAL SINGLE POINT ENERGY      -152.789708966221
FINAL SINGLE POINT ENERGY      -152.789710502561
FINAL SINGLE POINT ENERGY      -152.789711545597
FINAL SINGLE POINT ENERGY      -152.789712237080
Dispersion correction            ... done
MP2 TOTAL ENERGY:     -152.788620302 Eh
Dispersion correction           -0.001092615
FINAL SINGLE POINT ENERGY      -152.789712916186
                    ***********************HURRAY********************

CARTESIAN COORDINATES (ANGSTROEM)
---------------------------------
  O      0.069316    1.261056    0.898568
  H      0.073918    1.689798    0.041669
  H      0.110120    0.315032    0.705718
  O      0.143929   -1.619555    0.602104
  H     -0.635359   -1.996408    1.016741
  H      0.887025   -1.982249    1.089627

 Multiplicity           Mult            ....    1
 Number of Electrons    NEL             ....   20
 Basis Dimension        Dim             ....  184

ORBITAL ENERGIES
----------------

  NO   OCC          E(Eh)            E(eV)
   0   2.0000     -20.082208      -546.4647
   1   2.0000     -20.025268      -544.9152
   2   2.0000      -1.262665       -34.3589
   3   2.0000      -1.204383       -32.7729
   4   2.0000      -0.682210       -18.5639
   5   2.0000      -0.632997       -17.2247
   6   2.0000      -0.549770       -14.9600
   7   2.0000      -0.493424       -13.4267
   8   2.0000      -0.466990       -12.7075
   9   2.0000      -0.416629       -11.3371
  10   0.0000       0.005953         0.1620
  11   0.0000       0.034317         0.9338
  12   0.0000       0.036612         0.9963
  13   0.0000       0.065539         1.7834
  14   0.0000       0.102739         2.7957

Dispersion correction            ... done

MULLIKEN ATOMIC CHARGES
-----------------------
   0 O :   -0.466065
   1 H :    0.178362
   2 H :    0.277066
   3 O :   -0.390646
   4 H :    0.201102
   5 H :    0.200182
Sum of atomic charges:    0.0000000

LOEWDIN ATOMIC CHARGES
----------------------
   0 O :    1.041427
   1 H :   -0.517503
   2 H :   -0.679819
   3 O :    1.092392
   4 H :   -0.468266
   5 H :   -0.468231

  Mayer bond orders larger than 0.100000
B(  0-O ,  1-H ) :   1.0214 B(  0-O ,  2-H ) :   0.9009 B(  3-O ,  4-H ) :   0.9868
B(  3-O ,  5-H ) :   0.9882

MP2 TOTAL ENERGY:     -152.788620981 Eh
Dispersion correction           -0.001092302
FINAL SINGLE POINT ENERGY      -152.789713283348

DIPOLE MOMENT
-------------
                                X             Y             Z
Electronic contribution:      0.00274       0.01837       0.03519
Nuclear contribution   :      0.00767      -1.04613      -0.12285
                        -----------------------------------------
Total Dipole Moment    :      0.01041      -1.02776      -0.08766
                        -----------------------------------------
Magnitude (a.u.)       :      1.03154
Magnitude (Debye)      :      2.62198

VIBRATIONAL FREQUENCIES
-----------------------

Scaling factor for frequencies =  1.000000000 (already applied!)

   0:         0.00 cm**-1
   1:         0.00 cm**-1
   2:         0.00 cm**-1
   3:         0.00 cm**-1
   4:         0.00 cm**-1
   5:         0.00 cm**-1
   6:       113.37 cm**-1
   7:       141.01 cm**-1
   8:       149.62 cm**-1
   9:       187.36 cm**-1
  10:       363.01 cm**-1
  11:       631.68 cm**-1
  12:      1641.21 cm**-1
  13:      1662.83 cm**-1
  14:      3733.79 cm**-1
  15:      3833.61 cm**-1
  16:      3922.86 cm**-1
  17:      3943.76 cm**-1

IR SPECTRUM
-----------

 Mode    freq (cm**-1)   T**2         TX         TY         TZ
-------------------------------------------------------------------
   6:       113.37   99.295667  ( -9.741760  -1.827477  -1.026700)
   7:       141.01   72.390746  ( -8.504627  -0.061414  -0.241453)
   8:       149.62  174.849421  ( -1.613689  11.927549   5.475308)
   9:       187.36  112.712265  ( -0.311800   9.900720   3.819789)
  10:       363.01   51.558148  (  0.094686   1.832444  -6.941998)
  11:       631.68   96.778013  ( -9.824953  -0.431607  -0.249046)
  12:      1641.21   91.270388  ( -0.347082  -4.928128   8.177009)
  13:      1662.83   39.527789  (  0.210980  -3.648576  -5.115776)
  14:      3733.79  314.941627  (  0.455216 -17.740055  -0.157625)
  15:      3833.61   11.692655  ( -0.079587  -1.616305   3.012288)
  16:      3922.86  107.192838  (  0.197152  -9.617645   3.828169)
  17:      3943.76   95.720689  (  9.772919   0.107756   0.446239)

--------------------------
THERMOCHEMISTRY AT 298.15K
--------------------------

Temperature         ... 298.15 K
Pressure            ... 1.00 atm
Total Mass          ... 36.03 AMU

Throughout the following assumptions are being made:
  (1) The electronic state is orbitally nondegenerate
  (2) There are no thermally accessible electronically excited states
  (3) Hindered rotations indicated by low frequency modes are not
      treated as such but are treated as vibrations and this may
      cause some error
  (4) All equations used are the standard statistical mechanics
      equations for an ideal gas
  (5) All vibrations are strictly harmonic

freq.     113.37  E(vib)   ...       0.45
freq.     141.01  E(vib)   ...       0.41
freq.     149.62  E(vib)   ...       0.40
freq.     187.36  E(vib)   ...       0.36
freq.     363.01  E(vib)   ...       0.22
freq.     631.68  E(vib)   ...       0.09
freq.    1641.21  E(vib)   ...       0.00
freq.    1662.83  E(vib)   ...       0.00
freq.    3733.79  E(vib)   ...       0.00
freq.    3833.61  E(vib)   ...       0.00
freq.    3922.86  E(vib)   ...       0.00
freq.    3943.76  E(vib)   ...       0.00

------------
INNER ENERGY
------------

The inner energy is: U= E(el) + E(ZPE) + E(vib) + E(rot) + E(trans)
    E(el)   - is the total energy from the electronic structure calculation
              = E(kin-el) + E(nuc-el) + E(el-el) + E(nuc-nuc)
    E(ZPE)  - the the zero temperature vibrational energy from the frequency calculation
    E(vib)  - the the finite temperature correction to E(ZPE) due to population
              of excited vibrational states
    E(rot)  - is the rotational thermal energy
    E(trans)- is the translational thermal energy

Summary of contributions to the inner energy U:
Electronic energy                ...   -152.78971330 Eh
Zero point energy                ...      0.04630173 Eh      29.05 kcal/mol
Thermal vibrational correction   ...      0.00308903 Eh       1.94 kcal/mol
Thermal rotational correction    ...      0.00141627 Eh       0.89 kcal/mol
Thermal translational correction ...      0.00141627 Eh       0.89 kcal/mol
-----------------------------------------------------------------------
Total thermal energy                   -152.73749000 Eh

Summary of corrections to the electronic energy:
(perhaps to be used in another calculation)
Total thermal correction                  0.00592157 Eh       3.72 kcal/mol
Non-thermal (ZPE) correction              0.04630173 Eh      29.05 kcal/mol
-----------------------------------------------------------------------
Total correction                          0.05222330 Eh      32.77 kcal/mol

--------
ENTHALPY
--------

The enthalpy is H = U + kB*T
                kB is Boltzmann's constant
Total free energy                 ...   -152.73749000 Eh
Thermal Enthalpy correction       ...      0.00094421 Eh       0.59 kcal/mol
-----------------------------------------------------------------------
Total Enthalpy                    ...   -152.73654579 Eh

Note: Only C1 symmetry has been detected, increase convergence thresholds
      if your molecule has a higher symmetry. Symmetry factor of 1.0 is
      used for the rotational entropy correction.

Note: Rotational entropy computed according to Herzberg
Infrared and Raman Spectra, Chapter V,1, Van Nostrand Reinhold, 1945
Point Group:  C1, Symmetry Number:   1
Rotational constants in cm-1:     7.278803     0.215739     0.215611

Vibrational entropy computed according to the QRRHO of S. Grimme
Chem.Eur.J. 2012 18 9955

-------
ENTROPY
-------

The entropy contributions are T*S = T*(S(el)+S(vib)+S(rot)+S(trans))
     S(el)   - electronic entropy
     S(vib)  - vibrational entropy
     S(rot)  - rotational entropy
     S(trans)- translational entropy
The entropies will be listed as mutliplied by the temperature to get
units of energy

Electronic entropy                ...      0.00000000 Eh      0.00 kcal/mol
Vibrational entropy               ...      0.00578661 Eh      3.63 kcal/mol
Rotational entropy                ...      0.01002208 Eh      6.29 kcal/mol
Translational entropy             ...      0.01742549 Eh     10.93 kcal/mol
-----------------------------------------------------------------------
Final entropy term                ...      0.03323418 Eh     20.85 kcal/mol

In case the symmetry of your molecule has not been determined correctly
or in case you have a reason to use a different symmetry number we print
out the resulting rotational entropy values for sn=1,12 :
 --------------------------------------------------------
|  sn= 1 | S(rot)=       0.01002208 Eh      6.29 kcal/mol|
|  sn= 2 | S(rot)=       0.00936763 Eh      5.88 kcal/mol|
|  sn= 3 | S(rot)=       0.00898480 Eh      5.64 kcal/mol|
|  sn= 4 | S(rot)=       0.00871317 Eh      5.47 kcal/mol|
|  sn= 5 | S(rot)=       0.00850248 Eh      5.34 kcal/mol|
|  sn= 6 | S(rot)=       0.00833034 Eh      5.23 kcal/mol|
|  sn= 7 | S(rot)=       0.00818479 Eh      5.14 kcal/mol|
|  sn= 8 | S(rot)=       0.00805871 Eh      5.06 kcal/mol|
|  sn= 9 | S(rot)=       0.00794751 Eh      4.99 kcal/mol|
|  sn=10 | S(rot)=       0.00784803 Eh      4.92 kcal/mol|
|  sn=11 | S(rot)=       0.00775804 Eh      4.87 kcal/mol|
|  sn=12 | S(rot)=       0.00767588 Eh      4.82 kcal/mol|
 --------------------------------------------------------

-------------------
GIBBS FREE ENERGY
-------------------

The Gibbs free energy is G = H - T*S

Total enthalpy                    ...   -152.73654579 Eh
Total entropy correction          ...     -0.03323418 Eh    -20.85 kcal/mol
-----------------------------------------------------------------------
Final Gibbs free energy         ...   -152.76977997 Eh

For completeness - the Gibbs free energy minus the electronic energy
G-E(el)                           ...      0.01993332 Eh     12.51 kcal/mol

                             ****ORCA TERMINATED NORMALLY****
TOTAL RUN TIME: 0 days 0 hours 21 minutes 11 seconds 900 msec
