                         Program Version 4.2.0 -  RELEASE  -
|  1> #
|  2> # 03_H2O_3 dsd-blyp/aug-cc-pvt(+d)z
|  3> #
|  4> ! rijk ri-dsd-blyp/2013 d3bj aug-cc-pvt(+d)z def2/jk def2-tzvp/c grid4 nofinalgrid opt xyzfile numfreq
|  5>
|  6> *xyz 0 1
|  7> O	-1.476811	-0.647642	-0.082126
|  8> H	-0.613415	-1.087457	-0.037065
|  9> H	-2.026236	-1.086841	0.568502
| 10> O	1.305672	-0.945117	-0.091536
| 11> H	1.973931	-1.196903	0.547209
| 12> H	1.22684	0.019839	-0.021857
| 13> O	0.169678	1.599733	0.108456
| 14> H	-0.629586	1.051269	0.060063
| 15> H	0.080159	2.244313	-0.595195
| 16> *
| 17>
| 18> %maxcore 5000
| 19>
| 20> %pal
| 21> nprocs 24
| 22> end
| 23>
| 24>
| 25>                          ****END OF INPUT****
 Total Charge           Charge          ....    0
 Multiplicity           Mult            ....    1
 Number of Electrons    NEL             ....   30
Dispersion correction            ... done
MP2 TOTAL ENERGY:     -229.195961739 Eh
Dispersion correction           -0.002462958
FINAL SINGLE POINT ENERGY      -229.198424696943
Dispersion correction            ... done
MP2 TOTAL ENERGY:     -229.195972923 Eh
Dispersion correction           -0.002468216
FINAL SINGLE POINT ENERGY      -229.198441138901
Dispersion correction            ... done
MP2 TOTAL ENERGY:     -229.195970905 Eh
Dispersion correction           -0.002479865
FINAL SINGLE POINT ENERGY      -229.198450769761
                    ***********************HURRAY********************

CARTESIAN COORDINATES (ANGSTROEM)
---------------------------------
  O     -1.469100   -0.644297   -0.081193
  H     -0.603276   -1.082608   -0.036573
  H     -2.022414   -1.080619    0.567969
  O      1.299151   -0.940308   -0.091493
  H      1.967236   -1.197288    0.545239
  H      1.217651    0.025985   -0.021597
  O      0.168383    1.591568    0.108145
  H     -0.630746    1.040177    0.059681
  H      0.083346    2.238584   -0.593727

 Multiplicity           Mult            ....    1
 Number of Electrons    NEL             ....   30
 Basis Dimension        Dim             ....  276

ORBITAL ENERGIES
----------------

  NO   OCC          E(Eh)            E(eV)
   0   2.0000     -20.052764      -545.6635
   1   2.0000     -20.051074      -545.6175
   2   2.0000     -20.050459      -545.6007
   3   2.0000      -1.244882       -33.8750
   4   2.0000      -1.226659       -33.3791
   5   2.0000      -1.225114       -33.3371
   6   2.0000      -0.680756       -18.5243
   7   2.0000      -0.648618       -17.6498
   8   2.0000      -0.646753       -17.5990
   9   2.0000      -0.535486       -14.5713
  10   2.0000      -0.530077       -14.4241
  11   2.0000      -0.499018       -13.5790
  12   2.0000      -0.451259       -12.2794
  13   2.0000      -0.443103       -12.0574
  14   2.0000      -0.438109       -11.9215
  15   0.0000       0.011721         0.3190
  16   0.0000       0.030257         0.8233
  17   0.0000       0.031253         0.8504
  18   0.0000       0.054925         1.4946
  19   0.0000       0.061579         1.6756

Dispersion correction            ... done

MULLIKEN ATOMIC CHARGES
-----------------------
   0 O :   -0.453093
   1 H :    0.283548
   2 H :    0.169831
   3 O :   -0.464271
   4 H :    0.165544
   5 H :    0.294489
   6 O :   -0.452732
   7 H :    0.296164
   8 H :    0.160520
Sum of atomic charges:    0.0000000

LOEWDIN ATOMIC CHARGES
----------------------
   0 O :    1.099977
   1 H :   -0.621230
   2 H :   -0.470363
   3 O :    1.097289
   4 H :   -0.473271
   5 H :   -0.630706
   6 O :    1.098511
   7 H :   -0.631169
   8 H :   -0.469037

  Mayer bond orders larger than 0.100000
B(  0-O ,  1-H ) :   0.8730 B(  0-O ,  2-H ) :   1.0169 B(  3-O ,  4-H ) :   1.0217
B(  3-O ,  5-H ) :   0.8580 B(  6-O ,  7-H ) :   0.8562 B(  6-O ,  8-H ) :   1.0237

MP2 TOTAL ENERGY:     -229.195971039 Eh
Dispersion correction           -0.002479963
FINAL SINGLE POINT ENERGY      -229.198451002079

DIPOLE MOMENT
-------------
                                X             Y             Z
Electronic contribution:     -0.01602       0.01445      -0.13610
Nuclear contribution   :      0.01243      -0.05801       0.54110
                        -----------------------------------------
Total Dipole Moment    :     -0.00359      -0.04356       0.40500
                        -----------------------------------------
Magnitude (a.u.)       :      0.40735
Magnitude (Debye)      :      1.03540

VIBRATIONAL FREQUENCIES
-----------------------

Scaling factor for frequencies =  1.000000000 (already applied!)

   0:         0.00 cm**-1
   1:         0.00 cm**-1
   2:         0.00 cm**-1
   3:         0.00 cm**-1
   4:         0.00 cm**-1
   5:         0.00 cm**-1
   6:       170.31 cm**-1
   7:       181.10 cm**-1
   8:       190.85 cm**-1
   9:       209.12 cm**-1
  10:       223.84 cm**-1
  11:       245.73 cm**-1
  12:       349.66 cm**-1
  13:       358.71 cm**-1
  14:       450.93 cm**-1
  15:       577.29 cm**-1
  16:       672.94 cm**-1
  17:       867.98 cm**-1
  18:      1650.74 cm**-1
  19:      1653.78 cm**-1
  20:      1678.38 cm**-1
  21:      3594.64 cm**-1
  22:      3657.48 cm**-1
  23:      3666.84 cm**-1
  24:      3914.70 cm**-1
  25:      3919.49 cm**-1
  26:      3921.84 cm**-1

IR SPECTRUM
-----------

 Mode    freq (cm**-1)   T**2         TX         TY         TZ
-------------------------------------------------------------------
   6:       170.31   69.592169  (  6.805174   4.564787   1.563490)
   7:       181.10   83.475984  ( -6.854229   3.568081   4.874866)
   8:       190.85    8.261760  (  1.915194  -1.878352   1.032272)
   9:       209.12  133.286296  (  0.709719   8.637121   7.627761)
  10:       223.84   10.529550  (  1.357101  -2.888865  -0.585050)
  11:       245.73   23.612498  ( -1.202776   4.012648  -2.462617)
  12:       349.66   89.035874  (  4.650327  -8.151253   0.983573)
  13:       358.71   45.981126  (  6.696370  -0.169588  -1.054036)
  14:       450.93  123.997373  ( -5.479891  -8.465800   4.722119)
  15:       577.29  161.841699  (-10.897822  -6.040496  -2.567408)
  16:       672.94  298.425165  (  8.812027  -9.384631 -11.519638)
  17:       867.98   10.060511  ( -0.534113  -1.530526   2.726302)
  18:      1650.74   87.516164  (  7.386848   2.741358   5.043372)
  19:      1653.78   82.451956  ( -2.285013   6.871488  -5.478442)
  20:      1678.38   11.624103  ( -0.023301   1.673221  -2.970504)
  21:      3594.64   11.671657  (  3.233859  -1.101577   0.018423)
  22:      3657.48  552.104442  (  0.855491  23.475882  -0.505529)
  23:      3666.84  510.600503  (-22.581521   0.816877   0.090102)
  24:      3914.70   95.383172  ( -3.394744  -7.959263   4.528688)
  25:      3919.49  103.020157  (  6.818689  -6.727161   3.357224)
  26:      3921.84   89.755049  ( -8.091635  -2.097750   4.458692)

--------------------------
THERMOCHEMISTRY AT 298.15K
--------------------------

Temperature         ... 298.15 K
Pressure            ... 1.00 atm
Total Mass          ... 54.05 AMU

Throughout the following assumptions are being made:
  (1) The electronic state is orbitally nondegenerate
  (2) There are no thermally accessible electronically excited states
  (3) Hindered rotations indicated by low frequency modes are not
      treated as such but are treated as vibrations and this may
      cause some error
  (4) All equations used are the standard statistical mechanics
      equations for an ideal gas
  (5) All vibrations are strictly harmonic

freq.     170.31  E(vib)   ...       0.38
freq.     181.10  E(vib)   ...       0.37
freq.     190.85  E(vib)   ...       0.36
freq.     209.12  E(vib)   ...       0.34
freq.     223.84  E(vib)   ...       0.33
freq.     245.73  E(vib)   ...       0.31
freq.     349.66  E(vib)   ...       0.23
freq.     358.71  E(vib)   ...       0.22
freq.     450.93  E(vib)   ...       0.17
freq.     577.29  E(vib)   ...       0.11
freq.     672.94  E(vib)   ...       0.08
freq.     867.98  E(vib)   ...       0.04
freq.    1650.74  E(vib)   ...       0.00
freq.    1653.78  E(vib)   ...       0.00
freq.    1678.38  E(vib)   ...       0.00
freq.    3594.64  E(vib)   ...       0.00
freq.    3657.48  E(vib)   ...       0.00
freq.    3666.84  E(vib)   ...       0.00
freq.    3914.70  E(vib)   ...       0.00
freq.    3919.49  E(vib)   ...       0.00
freq.    3921.84  E(vib)   ...       0.00

------------
INNER ENERGY
------------

The inner energy is: U= E(el) + E(ZPE) + E(vib) + E(rot) + E(trans)
    E(el)   - is the total energy from the electronic structure calculation
              = E(kin-el) + E(nuc-el) + E(el-el) + E(nuc-nuc)
    E(ZPE)  - the the zero temperature vibrational energy from the frequency calculation
    E(vib)  - the the finite temperature correction to E(ZPE) due to population
              of excited vibrational states
    E(rot)  - is the rotational thermal energy
    E(trans)- is the translational thermal energy

Summary of contributions to the inner energy U:
Electronic energy                ...   -229.19845105 Eh
Zero point energy                ...      0.07325756 Eh      45.97 kcal/mol
Thermal vibrational correction   ...      0.00468029 Eh       2.94 kcal/mol
Thermal rotational correction    ...      0.00141627 Eh       0.89 kcal/mol
Thermal translational correction ...      0.00141627 Eh       0.89 kcal/mol
-----------------------------------------------------------------------
Total thermal energy                   -229.11768066 Eh

Summary of corrections to the electronic energy:
(perhaps to be used in another calculation)
Total thermal correction                  0.00751283 Eh       4.71 kcal/mol
Non-thermal (ZPE) correction              0.07325756 Eh      45.97 kcal/mol
-----------------------------------------------------------------------
Total correction                          0.08077039 Eh      50.68 kcal/mol

--------
ENTHALPY
--------

The enthalpy is H = U + kB*T
                kB is Boltzmann's constant
Total free energy                 ...   -229.11768066 Eh
Thermal Enthalpy correction       ...      0.00094421 Eh       0.59 kcal/mol
-----------------------------------------------------------------------
Total Enthalpy                    ...   -229.11673645 Eh

Note: Only C1 symmetry has been detected, increase convergence thresholds
      if your molecule has a higher symmetry. Symmetry factor of 1.0 is
      used for the rotational entropy correction.

Note: Rotational entropy computed according to Herzberg
Infrared and Raman Spectra, Chapter V,1, Van Nostrand Reinhold, 1945
Point Group:  C1, Symmetry Number:   1
Rotational constants in cm-1:     0.231997     0.229028     0.117371

Vibrational entropy computed according to the QRRHO of S. Grimme
Chem.Eur.J. 2012 18 9955

-------
ENTROPY
-------

The entropy contributions are T*S = T*(S(el)+S(vib)+S(rot)+S(trans))
     S(el)   - electronic entropy
     S(vib)  - vibrational entropy
     S(rot)  - rotational entropy
     S(trans)- translational entropy
The entropies will be listed as mutliplied by the temperature to get
units of energy

Electronic entropy                ...      0.00000000 Eh      0.00 kcal/mol
Vibrational entropy               ...      0.00798686 Eh      5.01 kcal/mol
Rotational entropy                ...      0.01190778 Eh      7.47 kcal/mol
Translational entropy             ...      0.01799974 Eh     11.29 kcal/mol
-----------------------------------------------------------------------
Final entropy term                ...      0.03789438 Eh     23.78 kcal/mol

In case the symmetry of your molecule has not been determined correctly
or in case you have a reason to use a different symmetry number we print
out the resulting rotational entropy values for sn=1,12 :
 --------------------------------------------------------
|  sn= 1 | S(rot)=       0.01190778 Eh      7.47 kcal/mol|
|  sn= 2 | S(rot)=       0.01125333 Eh      7.06 kcal/mol|
|  sn= 3 | S(rot)=       0.01087049 Eh      6.82 kcal/mol|
|  sn= 4 | S(rot)=       0.01059887 Eh      6.65 kcal/mol|
|  sn= 5 | S(rot)=       0.01038818 Eh      6.52 kcal/mol|
|  sn= 6 | S(rot)=       0.01021604 Eh      6.41 kcal/mol|
|  sn= 7 | S(rot)=       0.01007049 Eh      6.32 kcal/mol|
|  sn= 8 | S(rot)=       0.00994441 Eh      6.24 kcal/mol|
|  sn= 9 | S(rot)=       0.00983320 Eh      6.17 kcal/mol|
|  sn=10 | S(rot)=       0.00973372 Eh      6.11 kcal/mol|
|  sn=11 | S(rot)=       0.00964373 Eh      6.05 kcal/mol|
|  sn=12 | S(rot)=       0.00956158 Eh      6.00 kcal/mol|
 --------------------------------------------------------

-------------------
GIBBS FREE ENERGY
-------------------

The Gibbs free energy is G = H - T*S

Total enthalpy                    ...   -229.11673645 Eh
Total entropy correction          ...     -0.03789438 Eh    -23.78 kcal/mol
-----------------------------------------------------------------------
Final Gibbs free energy         ...   -229.15463083 Eh

For completeness - the Gibbs free energy minus the electronic energy
G-E(el)                           ...      0.04382022 Eh     27.50 kcal/mol

                             ****ORCA TERMINATED NORMALLY****
TOTAL RUN TIME: 0 days 0 hours 17 minutes 37 seconds 978 msec
