                         Program Version 4.2.0 -  RELEASE  -
|  1> #
|  2> # 04_H2O_4 dsd-blyp/aug-cc-pvt(+d)z
|  3> #
|  4> ! rijk ri-dsd-blyp/2013 d3bj aug-cc-pvt(+d)z def2/jk def2-tzvp/c grid4 nofinalgrid opt xyzfile numfreq
|  5>
|  6> *xyz 0 1
|  7> O	1.372659		-1.372658	0.015734
|  8> H	0.406261		-1.511316	-0.008945
|  9> H	1.683553		-1.872433	0.772059
| 10> O	-1.372658		-1.372658	-0.015734
| 11> H	-1.511316		-0.406261	0.008945
| 12> H	-1.872433		-1.683553	-0.772059
| 13> O	-1.372658		1.372659	0.015734
| 14> H	-0.406261		1.511317	-0.008945
| 15> H	-1.683553		1.872433	0.772059
| 16> O	1.372659		1.372659	-0.015734
| 17> H	1.511317		0.406261	0.008945
| 18> H	1.872433		1.683553	-0.772059
| 19> *
| 20>
| 21> %maxcore 5000
| 22>
| 23> %pal
| 24> nprocs 24
| 25> end
| 26>
| 27>
| 28>                          ****END OF INPUT****
 Total Charge           Charge          ....    0
 Multiplicity           Mult            ....    1
 Number of Electrons    NEL             ....   40
Dispersion correction            ... done
MP2 TOTAL ENERGY:     -305.605472537 Eh
Dispersion correction           -0.003648237
FINAL SINGLE POINT ENERGY      -305.609120774263
Dispersion correction            ... done
MP2 TOTAL ENERGY:     -305.605495684 Eh
Dispersion correction           -0.003660347
FINAL SINGLE POINT ENERGY      -305.609156031109
Dispersion correction            ... done
MP2 TOTAL ENERGY:     -305.605492845 Eh
Dispersion correction           -0.003688500
FINAL SINGLE POINT ENERGY      -305.609181345451
                    ***********************HURRAY********************

CARTESIAN COORDINATES (ANGSTROEM)
---------------------------------
  O      1.364040   -1.362884    0.016485
  H      0.394644   -1.500208   -0.008600
  H      1.679805   -1.861457    0.771528
  O     -1.362885   -1.364040   -0.016485
  H     -1.500208   -0.394644    0.008600
  H     -1.861458   -1.679806   -0.771528
  O     -1.364038    1.362885    0.016485
  H     -0.394642    1.500209   -0.008600
  H     -1.679803    1.861458    0.771528
  O      1.362884    1.364041   -0.016484
  H      1.500208    0.394645    0.008600
  H      1.861457    1.679806   -0.771528

 Multiplicity           Mult            ....    1
 Number of Electrons    NEL             ....   40
 Basis Dimension        Dim             ....  368

ORBITAL ENERGIES
----------------

  NO   OCC          E(Eh)            E(eV)
   0   2.0000     -20.048045      -545.5350
   1   2.0000     -20.048037      -545.5348
   2   2.0000     -20.048037      -545.5348
   3   2.0000     -20.048028      -545.5346
   4   2.0000      -1.244582       -33.8668
   5   2.0000      -1.229236       -33.4492
   6   2.0000      -1.229236       -33.4492
   7   2.0000      -1.214228       -33.0408
   8   2.0000      -0.669826       -18.2269
   9   2.0000      -0.656229       -17.8569
  10   2.0000      -0.656228       -17.8569
  11   2.0000      -0.647236       -17.6122
  12   2.0000      -0.558327       -15.1929
  13   2.0000      -0.521375       -14.1873
  14   2.0000      -0.521375       -14.1873
  15   2.0000      -0.485635       -13.2148
  16   2.0000      -0.443062       -12.0563
  17   2.0000      -0.441236       -12.0067
  18   2.0000      -0.441236       -12.0066
  19   2.0000      -0.440676       -11.9914
  20   0.0000       0.012224         0.3326
  21   0.0000       0.030471         0.8292
  22   0.0000       0.030471         0.8292
  23   0.0000       0.036474         0.9925
  24   0.0000       0.058386         1.5888

Dispersion correction            ... done

MULLIKEN ATOMIC CHARGES
-----------------------
   0 O :   -0.436662
   1 H :    0.283774
   2 H :    0.152888
   3 O :   -0.436661
   4 H :    0.283774
   5 H :    0.152888
   6 O :   -0.436662
   7 H :    0.283774
   8 H :    0.152887
   9 O :   -0.436661
  10 H :    0.283775
  11 H :    0.152887
Sum of atomic charges:   -0.0000000

LOEWDIN ATOMIC CHARGES
----------------------
   0 O :    1.117929
   1 H :   -0.662216
   2 H :   -0.455713
   3 O :    1.117929
   4 H :   -0.662215
   5 H :   -0.455713
   6 O :    1.117929
   7 H :   -0.662217
   8 H :   -0.455714
   9 O :    1.117929
  10 H :   -0.662215
  11 H :   -0.455713

  Mayer bond orders larger than 0.100000
B(  0-O ,  1-H ) :   0.8361 B(  0-O ,  2-H ) :   1.0342 B(  3-O ,  4-H ) :   0.8361
B(  3-O ,  5-H ) :   1.0342 B(  6-O ,  7-H ) :   0.8361 B(  6-O ,  8-H ) :   1.0342
B(  9-O , 10-H ) :   0.8361 B(  9-O , 11-H ) :   1.0342

MP2 TOTAL ENERGY:     -305.605494195 Eh
Dispersion correction           -0.003687541
FINAL SINGLE POINT ENERGY      -305.609181735529

DIPOLE MOMENT
-------------
                                X             Y             Z
Electronic contribution:      0.00000      -0.00000      -0.00000
Nuclear contribution   :      0.00000      -0.00000       0.00000
                        -----------------------------------------
Total Dipole Moment    :      0.00000      -0.00000      -0.00000
                        -----------------------------------------
Magnitude (a.u.)       :      0.00000
Magnitude (Debye)      :      0.00001

VIBRATIONAL FREQUENCIES
-----------------------

Scaling factor for frequencies =  1.000000000 (already applied!)

   0:         0.00 cm**-1
   1:         0.00 cm**-1
   2:         0.00 cm**-1
   3:         0.00 cm**-1
   4:         0.00 cm**-1
   5:         0.00 cm**-1
   6:        53.85 cm**-1
   7:        82.33 cm**-1
   8:       201.19 cm**-1
   9:       213.96 cm**-1
  10:       232.56 cm**-1
  11:       232.96 cm**-1
  12:       259.11 cm**-1
  13:       259.29 cm**-1
  14:       264.81 cm**-1
  15:       279.19 cm**-1
  16:       408.37 cm**-1
  17:       441.66 cm**-1
  18:       452.15 cm**-1
  19:       452.37 cm**-1
  20:       750.86 cm**-1
  21:       823.99 cm**-1
  22:       824.04 cm**-1
  23:       992.11 cm**-1
  24:      1655.45 cm**-1
  25:      1669.74 cm**-1
  26:      1669.84 cm**-1
  27:      1698.51 cm**-1
  28:      3407.29 cm**-1
  29:      3503.73 cm**-1
  30:      3503.73 cm**-1
  31:      3544.51 cm**-1
  32:      3911.22 cm**-1
  33:      3912.13 cm**-1
  34:      3912.15 cm**-1
  35:      3912.93 cm**-1

IR SPECTRUM
-----------

 Mode    freq (cm**-1)   T**2         TX         TY         TZ
-------------------------------------------------------------------
   6:        53.85    0.000286  (  0.011684  -0.012221   0.000265)
   7:        82.33    1.643722  ( -0.003218   0.001913  -1.282072)
   8:       201.19   62.434257  (  0.008183   0.039852   7.901430)
   9:       213.96    0.007390  ( -0.041901   0.048713   0.057110)
  10:       232.56   71.632878  ( -8.261035  -1.840649   0.013464)
  11:       232.96   70.559251  (  1.874835  -8.188004   0.028939)
  12:       259.11  177.323309  ( -6.908781 -11.383851  -0.000094)
  13:       259.29  176.376671  (-11.331490   6.926313  -0.013857)
  14:       264.81    0.685645  (  0.243314  -0.068236  -0.788535)
  15:       279.19    0.009884  ( -0.094701   0.023714  -0.018813)
  16:       408.37    0.000326  (  0.003948  -0.015310  -0.008708)
  17:       441.66   18.117666  ( -0.014375   0.015265  -4.256433)
  18:       452.15   42.304997  (  6.294894   1.636837  -0.008006)
  19:       452.37   42.239339  ( -1.629420   6.291601   0.008898)
  20:       750.86  176.797660  (  0.001002   0.005872  13.296527)
  21:       823.99  178.649101  ( 10.571025  -8.179395   0.004302)
  22:       824.04  178.553150  (  8.178003  10.567564  -0.003314)
  23:       992.11    0.000004  (  0.001643  -0.000666   0.000885)
  24:      1655.45   86.491809  (  0.008412  -0.000113   9.300093)
  25:      1669.74   54.916583  ( -2.659220  -6.917016   0.004558)
  26:      1669.84   54.923921  (  6.917136  -2.660271  -0.010694)
  27:      1698.51    0.000160  (  0.007464   0.004796   0.009010)
  28:      3407.29    0.000001  ( -0.000846  -0.000302   0.000141)
  29:      3503.73  1429.201281  (-17.328324 -33.599560  -0.000048)
  30:      3503.73  1429.234069  (-33.599975  17.328467   0.000151)
  31:      3544.51   26.485359  ( -0.002422   0.002398   5.146392)
  32:      3911.22  102.769793  (  0.052869   0.000064  10.137406)
  33:      3912.13  110.112694  ( -7.221160  -7.613566   0.034070)
  34:      3912.15  110.088597  ( -7.611552   7.221609   0.035147)
  35:      3912.93    0.012451  (  0.069042   0.077772  -0.040444)

--------------------------
THERMOCHEMISTRY AT 298.15K
--------------------------

Temperature         ... 298.15 K
Pressure            ... 1.00 atm
Total Mass          ... 72.06 AMU

Throughout the following assumptions are being made:
  (1) The electronic state is orbitally nondegenerate
  (2) There are no thermally accessible electronically excited states
  (3) Hindered rotations indicated by low frequency modes are not
      treated as such but are treated as vibrations and this may
      cause some error
  (4) All equations used are the standard statistical mechanics
      equations for an ideal gas
  (5) All vibrations are strictly harmonic

freq.      53.85  E(vib)   ...       0.52
freq.      82.33  E(vib)   ...       0.48
freq.     201.19  E(vib)   ...       0.35
freq.     213.96  E(vib)   ...       0.34
freq.     232.56  E(vib)   ...       0.32
freq.     232.96  E(vib)   ...       0.32
freq.     259.11  E(vib)   ...       0.30
freq.     259.29  E(vib)   ...       0.30
freq.     264.81  E(vib)   ...       0.29
freq.     279.19  E(vib)   ...       0.28
freq.     408.37  E(vib)   ...       0.19
freq.     441.66  E(vib)   ...       0.17
freq.     452.15  E(vib)   ...       0.16
freq.     452.37  E(vib)   ...       0.16
freq.     750.86  E(vib)   ...       0.06
freq.     823.99  E(vib)   ...       0.05
freq.     824.04  E(vib)   ...       0.05
freq.     992.11  E(vib)   ...       0.02
freq.    1655.45  E(vib)   ...       0.00
freq.    1669.74  E(vib)   ...       0.00
freq.    1669.84  E(vib)   ...       0.00
freq.    1698.51  E(vib)   ...       0.00
freq.    3407.29  E(vib)   ...       0.00
freq.    3503.73  E(vib)   ...       0.00
freq.    3503.73  E(vib)   ...       0.00
freq.    3544.51  E(vib)   ...       0.00
freq.    3911.22  E(vib)   ...       0.00
freq.    3912.13  E(vib)   ...       0.00
freq.    3912.15  E(vib)   ...       0.00
freq.    3912.93  E(vib)   ...       0.00

------------
INNER ENERGY
------------

The inner energy is: U= E(el) + E(ZPE) + E(vib) + E(rot) + E(trans)
    E(el)   - is the total energy from the electronic structure calculation
              = E(kin-el) + E(nuc-el) + E(el-el) + E(nuc-nuc)
    E(ZPE)  - the the zero temperature vibrational energy from the frequency calculation
    E(vib)  - the the finite temperature correction to E(ZPE) due to population
              of excited vibrational states
    E(rot)  - is the rotational thermal energy
    E(trans)- is the translational thermal energy

Summary of contributions to the inner energy U:
Electronic energy                ...   -305.60918170 Eh
Zero point energy                ...      0.09915963 Eh      62.22 kcal/mol
Thermal vibrational correction   ...      0.00695762 Eh       4.37 kcal/mol
Thermal rotational correction    ...      0.00141627 Eh       0.89 kcal/mol
Thermal translational correction ...      0.00141627 Eh       0.89 kcal/mol
-----------------------------------------------------------------------
Total thermal energy                   -305.50023191 Eh

Summary of corrections to the electronic energy:
(perhaps to be used in another calculation)
Total thermal correction                  0.00979017 Eh       6.14 kcal/mol
Non-thermal (ZPE) correction              0.09915963 Eh      62.22 kcal/mol
-----------------------------------------------------------------------
Total correction                          0.10894979 Eh      68.37 kcal/mol

--------
ENTHALPY
--------

The enthalpy is H = U + kB*T
                kB is Boltzmann's constant
Total free energy                 ...   -305.50023191 Eh
Thermal Enthalpy correction       ...      0.00094421 Eh       0.59 kcal/mol
-----------------------------------------------------------------------
Total Enthalpy                    ...   -305.49928770 Eh

Note: Only C1 symmetry has been detected, increase convergence thresholds
      if your molecule has a higher symmetry. Symmetry factor of 1.0 is
      used for the rotational entropy correction.

Note: Rotational entropy computed according to Herzberg
Infrared and Raman Spectra, Chapter V,1, Van Nostrand Reinhold, 1945
Point Group:  C1, Symmetry Number:   1
Rotational constants in cm-1:     0.121354     0.121353     0.061752

Vibrational entropy computed according to the QRRHO of S. Grimme
Chem.Eur.J. 2012 18 9955

-------
ENTROPY
-------

The entropy contributions are T*S = T*(S(el)+S(vib)+S(rot)+S(trans))
     S(el)   - electronic entropy
     S(vib)  - vibrational entropy
     S(rot)  - rotational entropy
     S(trans)- translational entropy
The entropies will be listed as mutliplied by the temperature to get
units of energy

Electronic entropy                ...      0.00000000 Eh      0.00 kcal/mol
Vibrational entropy               ...      0.01203619 Eh      7.55 kcal/mol
Rotational entropy                ...      0.01281673 Eh      8.04 kcal/mol
Translational entropy             ...      0.01840717 Eh     11.55 kcal/mol
-----------------------------------------------------------------------
Final entropy term                ...      0.04326009 Eh     27.15 kcal/mol

In case the symmetry of your molecule has not been determined correctly
or in case you have a reason to use a different symmetry number we print
out the resulting rotational entropy values for sn=1,12 :
 --------------------------------------------------------
|  sn= 1 | S(rot)=       0.01281673 Eh      8.04 kcal/mol|
|  sn= 2 | S(rot)=       0.01216228 Eh      7.63 kcal/mol|
|  sn= 3 | S(rot)=       0.01177944 Eh      7.39 kcal/mol|
|  sn= 4 | S(rot)=       0.01150782 Eh      7.22 kcal/mol|
|  sn= 5 | S(rot)=       0.01129713 Eh      7.09 kcal/mol|
|  sn= 6 | S(rot)=       0.01112499 Eh      6.98 kcal/mol|
|  sn= 7 | S(rot)=       0.01097944 Eh      6.89 kcal/mol|
|  sn= 8 | S(rot)=       0.01085336 Eh      6.81 kcal/mol|
|  sn= 9 | S(rot)=       0.01074216 Eh      6.74 kcal/mol|
|  sn=10 | S(rot)=       0.01064268 Eh      6.68 kcal/mol|
|  sn=11 | S(rot)=       0.01055269 Eh      6.62 kcal/mol|
|  sn=12 | S(rot)=       0.01047053 Eh      6.57 kcal/mol|
 --------------------------------------------------------

-------------------
GIBBS FREE ENERGY
-------------------

The Gibbs free energy is G = H - T*S

Total enthalpy                    ...   -305.49928770 Eh
Total entropy correction          ...     -0.04326009 Eh    -27.15 kcal/mol
-----------------------------------------------------------------------
Final Gibbs free energy         ...   -305.54254779 Eh

For completeness - the Gibbs free energy minus the electronic energy
G-E(el)                           ...      0.06663391 Eh     41.81 kcal/mol

                             ****ORCA TERMINATED NORMALLY****
TOTAL RUN TIME: 0 days 0 hours 40 minutes 25 seconds 561 msec
