                         Program Version 4.2.0 -  RELEASE  -
|  1> #
|  2> # 05_H2O_5 dsd-blyp/aug-cc-pvt(+d)z
|  3> #
|  4> ! rijk ri-dsd-blyp/2013 d3bj aug-cc-pvt(+d)z def2/jk def2-tzvp/c grid4 nofinalgrid opt xyzfile numfreq
|  5>
|  6> *xyz 0 1
|  7> O	2.312927	0.150318	0.177415
|  8> O	0.864769	-2.137443	-0.15942
|  9> O	-1.781315	-1.498466	0.059758
| 10> O	-1.961951	1.234812	-0.062774
| 11> O	0.577396	2.241432	-0.075822
| 12> H	1.836849	-0.694236	0.04925
| 13> H	-0.089971	-1.943593	-0.076678
| 14> H	-1.915322	-0.530797	0.048103
| 15> H	-1.066728	1.628166	-0.074484
| 16> H	1.229463	1.522335	0.042111
| 17> H	2.825562	0.034681	0.978576
| 18> H	0.953988	-2.623745	-0.980296
| 19> H	-2.260123	-1.814802	0.826889
| 20> H	-2.472247	1.784461	0.533098
| 21> H	0.863928	2.71231	-0.859811
| 22> *
| 23>
| 24> %maxcore 5000
| 25>
| 26> %pal
| 27> nprocs 24
| 28> end
| 29>
| 30>
| 31>                          ****END OF INPUT****
 Total Charge           Charge          ....    0
 Multiplicity           Mult            ....    1
 Number of Electrons    NEL             ....   50
Dispersion correction            ... done
MP2 TOTAL ENERGY:     -382.009839973 Eh
Dispersion correction           -0.004537778
FINAL SINGLE POINT ENERGY      -382.014377750736
Dispersion correction            ... done
MP2 TOTAL ENERGY:     -382.009881618 Eh
Dispersion correction           -0.004559391
FINAL SINGLE POINT ENERGY      -382.014441009520
Dispersion correction            ... done
MP2 TOTAL ENERGY:     -382.009879762 Eh
Dispersion correction           -0.004595765
FINAL SINGLE POINT ENERGY      -382.014475526768
                    ***********************HURRAY********************

CARTESIAN COORDINATES (ANGSTROEM)
---------------------------------
  O      2.293576    0.150476    0.184522
  O      0.859750   -2.119799   -0.164242
  O     -1.766071   -1.487797    0.061011
  O     -1.947096    1.224073   -0.057630
  O      0.571918    2.224236   -0.082496
  H      1.816363   -0.696507    0.051491
  H     -0.098400   -1.927077   -0.079370
  H     -1.899502   -0.516810    0.049778
  H     -1.049336    1.619804   -0.073510
  H      1.226241    1.503570    0.040449
  H      2.805575    0.038816    0.986647
  H      0.954712   -2.605791   -0.984658
  H     -2.242703   -1.810627    0.826813
  H     -2.462813    1.772873    0.534324
  H      0.855011    2.695993   -0.867213

 Multiplicity           Mult            ....    1
 Number of Electrons    NEL             ....   50
 Basis Dimension        Dim             ....  460

ORBITAL ENERGIES
----------------

  NO   OCC          E(Eh)            E(eV)
   0   2.0000     -20.046311      -545.4879
   1   2.0000     -20.045063      -545.4539
   2   2.0000     -20.044908      -545.4497
   3   2.0000     -20.044651      -545.4427
   4   2.0000     -20.044369      -545.4350
   5   2.0000      -1.241856       -33.7926
   6   2.0000      -1.231757       -33.5178
   7   2.0000      -1.231047       -33.4985
   8   2.0000      -1.214294       -33.0426
   9   2.0000      -1.213439       -33.0193
  10   2.0000      -0.661285       -17.9945
  11   2.0000      -0.656914       -17.8755
  12   2.0000      -0.654769       -17.8172
  13   2.0000      -0.652844       -17.7648
  14   2.0000      -0.651407       -17.7257
  15   2.0000      -0.554152       -15.0792
  16   2.0000      -0.550645       -14.9838
  17   2.0000      -0.507974       -13.8227
  18   2.0000      -0.505534       -13.7563
  19   2.0000      -0.478820       -13.0294
  20   2.0000      -0.443955       -12.0806
  21   2.0000      -0.439537       -11.9604
  22   2.0000      -0.439128       -11.9493
  23   2.0000      -0.438120       -11.9219
  24   2.0000      -0.434576       -11.8254
  25   0.0000       0.011273         0.3067
  26   0.0000       0.025775         0.7014
  27   0.0000       0.028077         0.7640
  28   0.0000       0.036288         0.9874
  29   0.0000       0.044458         1.2098

Dispersion correction            ... done

MULLIKEN ATOMIC CHARGES
-----------------------
   0 O :   -0.426790
   1 O :   -0.422249
   2 O :   -0.416052
   3 O :   -0.435562
   4 O :   -0.419163
   5 H :    0.268416
   6 H :    0.271183
   7 H :    0.258212
   8 H :    0.274532
   9 H :    0.269060
  10 H :    0.155006
  11 H :    0.155786
  12 H :    0.158936
  13 H :    0.153892
  14 H :    0.154792
Sum of atomic charges:    0.0000000

LOEWDIN ATOMIC CHARGES
----------------------
   0 O :    1.125401
   1 O :    1.125567
   2 O :    1.126655
   3 O :    1.124153
   4 O :    1.124549
   5 H :   -0.674190
   6 H :   -0.673435
   7 H :   -0.668459
   8 H :   -0.674669
   9 H :   -0.674461
  10 H :   -0.451564
  11 H :   -0.450477
  12 H :   -0.452617
  13 H :   -0.455475
  14 H :   -0.450979

  Mayer bond orders larger than 0.100000
B(  0-O ,  5-H ) :   0.8508 B(  0-O ,  9-H ) :   0.1071 B(  0-O , 10-H ) :   1.0321
B(  1-O ,  5-H ) :   0.1083 B(  1-O ,  6-H ) :   0.8496 B(  1-O , 11-H ) :   1.0297
B(  2-O ,  6-H ) :   0.1042 B(  2-O ,  7-H ) :   0.8615 B(  2-O , 12-H ) :   1.0273
B(  3-O ,  7-H ) :   0.1087 B(  3-O ,  8-H ) :   0.8458 B(  3-O , 13-H ) :   1.0386
B(  4-O ,  8-H ) :   0.1077 B(  4-O ,  9-H ) :   0.8512 B(  4-O , 14-H ) :   1.0316

MP2 TOTAL ENERGY:     -382.009882761 Eh
Dispersion correction           -0.004593526
FINAL SINGLE POINT ENERGY      -382.014476286248

DIPOLE MOMENT
-------------
                                X             Y             Z
Electronic contribution:      0.02659      -0.03430      -0.13429
Nuclear contribution   :     -0.09906       0.07647       0.50143
                        -----------------------------------------
Total Dipole Moment    :     -0.07247       0.04217       0.36714
                        -----------------------------------------
Magnitude (a.u.)       :      0.37659
Magnitude (Debye)      :      0.95722

VIBRATIONAL FREQUENCIES
-----------------------

Scaling factor for frequencies =  1.000000000 (already applied!)

   0:         0.00 cm**-1
   1:         0.00 cm**-1
   2:         0.00 cm**-1
   3:         0.00 cm**-1
   4:         0.00 cm**-1
   5:         0.00 cm**-1
   6:        34.45 cm**-1
   7:        44.91 cm**-1
   8:        63.08 cm**-1
   9:        66.32 cm**-1
  10:       184.17 cm**-1
  11:       189.31 cm**-1
  12:       213.96 cm**-1
  13:       230.30 cm**-1
  14:       240.21 cm**-1
  15:       247.27 cm**-1
  16:       281.26 cm**-1
  17:       301.23 cm**-1
  18:       305.31 cm**-1
  19:       309.00 cm**-1
  20:       411.90 cm**-1
  21:       431.89 cm**-1
  22:       449.55 cm**-1
  23:       468.20 cm**-1
  24:       525.40 cm**-1
  25:       716.20 cm**-1
  26:       792.78 cm**-1
  27:       862.31 cm**-1
  28:       881.55 cm**-1
  29:       982.52 cm**-1
  30:      1658.93 cm**-1
  31:      1668.57 cm**-1
  32:      1680.18 cm**-1
  33:      1697.19 cm**-1
  34:      1705.66 cm**-1
  35:      3364.31 cm**-1
  36:      3448.22 cm**-1
  37:      3457.37 cm**-1
  38:      3504.65 cm**-1
  39:      3513.16 cm**-1
  40:      3910.54 cm**-1
  41:      3911.98 cm**-1
  42:      3914.15 cm**-1
  43:      3915.08 cm**-1
  44:      3916.91 cm**-1

IR SPECTRUM
-----------

 Mode    freq (cm**-1)   T**2         TX         TY         TZ
-------------------------------------------------------------------
   6:        34.45    2.165394  (  0.091177  -1.456611   0.188055)
   7:        44.91    0.004853  (  0.045923  -0.052344  -0.001945)
   8:        63.08    0.905396  (  0.090176  -0.128932   0.938425)
   9:        66.32    0.830368  ( -0.069648  -0.095397  -0.903558)
  10:       184.17    3.198831  ( -1.365239  -0.034012  -1.154902)
  11:       189.31   20.036814  (  4.181099   0.524050   1.510165)
  12:       213.96   96.096262  (  3.527029  -1.560169   9.012336)
  13:       230.30   46.270346  (  6.677055  -1.239298   0.389139)
  14:       240.21   15.768462  ( -0.805654   3.856971   0.493111)
  15:       247.27  161.202541  ( 12.566315  -1.392250   1.162716)
  16:       281.26  258.844299  ( -4.275003 -15.508443  -0.238411)
  17:       301.23   42.496001  ( -6.177787   2.064507   0.262215)
  18:       305.31    8.435404  (  1.976859   1.945629   0.861370)
  19:       309.00   12.185878  (  3.011269   1.665248  -0.587439)
  20:       411.90   50.936350  ( -6.374116   2.987454   1.175633)
  21:       431.89   17.374287  ( -1.685226   3.811192  -0.095488)
  22:       449.55   11.519306  (  1.051008  -3.171711  -0.595767)
  23:       468.20   25.224622  (  2.523379  -0.866249   4.255207)
  24:       525.40   62.975053  (  2.489597   5.223325  -5.430823)
  25:       716.20   25.882449  ( -3.850531  -0.362645  -3.305200)
  26:       792.78  165.877656  (  1.316169   0.121756 -12.811344)
  27:       862.31  154.095346  (-11.269952  -2.984830  -4.263134)
  28:       881.55  152.956610  (  1.272240 -12.068606   2.384692)
  29:       982.52    9.865661  ( -2.593161   0.802319   1.580336)
  30:      1658.93   79.751272  (  0.176236   0.452379   8.917150)
  31:      1668.57   18.756978  (  4.019979  -1.475679  -0.647390)
  32:      1680.18   77.860617  (  0.195095   8.397125   2.703859)
  33:      1697.19   53.190619  (  7.176822  -0.158660  -1.287895)
  34:      1705.66    2.276047  ( -0.267473  -0.987839   1.108458)
  35:      3364.31   19.516298  ( -0.716498   4.358508   0.079618)
  36:      3448.22  2171.783906  ( 46.041146   7.208280  -0.193505)
  37:      3457.37  2023.295556  ( -7.737498  44.309795   0.262178)
  38:      3504.65   76.062574  (  0.568459  -0.233944  -8.699695)
  39:      3513.16   68.346123  (  0.918981   7.438194  -3.489251)
  40:      3910.54   80.908242  (  1.131338  -6.274077   6.345413)
  41:      3911.98   80.632885  (  5.408821   3.951038   5.980539)
  42:      3914.15   79.015626  ( -5.693104   1.475836   6.665291)
  43:      3915.08   69.912619  ( -0.788048   8.098915  -1.923326)
  44:      3916.91   79.596692  (  7.801974  -0.802157  -4.252345)

--------------------------
THERMOCHEMISTRY AT 298.15K
--------------------------

Temperature         ... 298.15 K
Pressure            ... 1.00 atm
Total Mass          ... 90.07 AMU

Throughout the following assumptions are being made:
  (1) The electronic state is orbitally nondegenerate
  (2) There are no thermally accessible electronically excited states
  (3) Hindered rotations indicated by low frequency modes are not
      treated as such but are treated as vibrations and this may
      cause some error
  (4) All equations used are the standard statistical mechanics
      equations for an ideal gas
  (5) All vibrations are strictly harmonic

freq.      34.45  E(vib)   ...       0.54
freq.      44.91  E(vib)   ...       0.53
freq.      63.08  E(vib)   ...       0.51
freq.      66.32  E(vib)   ...       0.50
freq.     184.17  E(vib)   ...       0.37
freq.     189.31  E(vib)   ...       0.36
freq.     213.96  E(vib)   ...       0.34
freq.     230.30  E(vib)   ...       0.32
freq.     240.21  E(vib)   ...       0.31
freq.     247.27  E(vib)   ...       0.31
freq.     281.26  E(vib)   ...       0.28
freq.     301.23  E(vib)   ...       0.26
freq.     305.31  E(vib)   ...       0.26
freq.     309.00  E(vib)   ...       0.26
freq.     411.90  E(vib)   ...       0.19
freq.     431.89  E(vib)   ...       0.18
freq.     449.55  E(vib)   ...       0.17
freq.     468.20  E(vib)   ...       0.16
freq.     525.40  E(vib)   ...       0.13
freq.     716.20  E(vib)   ...       0.07
freq.     792.78  E(vib)   ...       0.05
freq.     862.31  E(vib)   ...       0.04
freq.     881.55  E(vib)   ...       0.04
freq.     982.52  E(vib)   ...       0.02
freq.    1658.93  E(vib)   ...       0.00
freq.    1668.57  E(vib)   ...       0.00
freq.    1680.18  E(vib)   ...       0.00
freq.    1697.19  E(vib)   ...       0.00
freq.    1705.66  E(vib)   ...       0.00
freq.    3364.31  E(vib)   ...       0.00
freq.    3448.22  E(vib)   ...       0.00
freq.    3457.37  E(vib)   ...       0.00
freq.    3504.65  E(vib)   ...       0.00
freq.    3513.16  E(vib)   ...       0.00
freq.    3910.54  E(vib)   ...       0.00
freq.    3911.98  E(vib)   ...       0.00
freq.    3914.15  E(vib)   ...       0.00
freq.    3915.08  E(vib)   ...       0.00
freq.    3916.91  E(vib)   ...       0.00

------------
INNER ENERGY
------------

The inner energy is: U= E(el) + E(ZPE) + E(vib) + E(rot) + E(trans)
    E(el)   - is the total energy from the electronic structure calculation
              = E(kin-el) + E(nuc-el) + E(el-el) + E(nuc-nuc)
    E(ZPE)  - the the zero temperature vibrational energy from the frequency calculation
    E(vib)  - the the finite temperature correction to E(ZPE) due to population
              of excited vibrational states
    E(rot)  - is the rotational thermal energy
    E(trans)- is the translational thermal energy

Summary of contributions to the inner energy U:
Electronic energy                ...   -382.01447628 Eh
Zero point energy                ...      0.12416007 Eh      77.91 kcal/mol
Thermal vibrational correction   ...      0.00987064 Eh       6.19 kcal/mol
Thermal rotational correction    ...      0.00141627 Eh       0.89 kcal/mol
Thermal translational correction ...      0.00141627 Eh       0.89 kcal/mol
-----------------------------------------------------------------------
Total thermal energy                   -381.87761302 Eh

Summary of corrections to the electronic energy:
(perhaps to be used in another calculation)
Total thermal correction                  0.01270318 Eh       7.97 kcal/mol
Non-thermal (ZPE) correction              0.12416007 Eh      77.91 kcal/mol
-----------------------------------------------------------------------
Total correction                          0.13686325 Eh      85.88 kcal/mol

--------
ENTHALPY
--------

The enthalpy is H = U + kB*T
                kB is Boltzmann's constant
Total free energy                 ...   -381.87761302 Eh
Thermal Enthalpy correction       ...      0.00094421 Eh       0.59 kcal/mol
-----------------------------------------------------------------------
Total Enthalpy                    ...   -381.87666881 Eh

Note: Only C1 symmetry has been detected, increase convergence thresholds
      if your molecule has a higher symmetry. Symmetry factor of 1.0 is
      used for the rotational entropy correction.

Note: Rotational entropy computed according to Herzberg
Infrared and Raman Spectra, Chapter V,1, Van Nostrand Reinhold, 1945
Point Group:  C1, Symmetry Number:   1
Rotational constants in cm-1:     0.068613     0.068217     0.034900

Vibrational entropy computed according to the QRRHO of S. Grimme
Chem.Eur.J. 2012 18 9955

-------
ENTROPY
-------

The entropy contributions are T*S = T*(S(el)+S(vib)+S(rot)+S(trans))
     S(el)   - electronic entropy
     S(vib)  - vibrational entropy
     S(rot)  - rotational entropy
     S(trans)- translational entropy
The entropies will be listed as mutliplied by the temperature to get
units of energy

Electronic entropy                ...      0.00000000 Eh      0.00 kcal/mol
Vibrational entropy               ...      0.01760964 Eh     11.05 kcal/mol
Rotational entropy                ...      0.01362726 Eh      8.55 kcal/mol
Translational entropy             ...      0.01872320 Eh     11.75 kcal/mol
-----------------------------------------------------------------------
Final entropy term                ...      0.04996010 Eh     31.35 kcal/mol

In case the symmetry of your molecule has not been determined correctly
or in case you have a reason to use a different symmetry number we print
out the resulting rotational entropy values for sn=1,12 :
 --------------------------------------------------------
|  sn= 1 | S(rot)=       0.01362726 Eh      8.55 kcal/mol|
|  sn= 2 | S(rot)=       0.01297280 Eh      8.14 kcal/mol|
|  sn= 3 | S(rot)=       0.01258997 Eh      7.90 kcal/mol|
|  sn= 4 | S(rot)=       0.01231834 Eh      7.73 kcal/mol|
|  sn= 5 | S(rot)=       0.01210766 Eh      7.60 kcal/mol|
|  sn= 6 | S(rot)=       0.01193551 Eh      7.49 kcal/mol|
|  sn= 7 | S(rot)=       0.01178996 Eh      7.40 kcal/mol|
|  sn= 8 | S(rot)=       0.01166389 Eh      7.32 kcal/mol|
|  sn= 9 | S(rot)=       0.01155268 Eh      7.25 kcal/mol|
|  sn=10 | S(rot)=       0.01145320 Eh      7.19 kcal/mol|
|  sn=11 | S(rot)=       0.01136321 Eh      7.13 kcal/mol|
|  sn=12 | S(rot)=       0.01128105 Eh      7.08 kcal/mol|
 --------------------------------------------------------

-------------------
GIBBS FREE ENERGY
-------------------

The Gibbs free energy is G = H - T*S

Total enthalpy                    ...   -381.87666881 Eh
Total entropy correction          ...     -0.04996010 Eh    -31.35 kcal/mol
-----------------------------------------------------------------------

                             ****ORCA TERMINATED NORMALLY****
TOTAL RUN TIME: 0 days 1 hours 20 minutes 41 seconds 171 msec
