                         Program Version 4.2.0 -  RELEASE  -
|  1> #
|  2> # 06_H2O_6_ring dsd-blyp/aug-cc-pvt(+d)z
|  3> #
|  4> ! rijk ri-dsd-blyp/2013 d3bj aug-cc-pvt(+d)z def2/jk def2-tzvp/c grid4 nofinalgrid opt xyzfile numfreq
|  5>
|  6> *xyz 0 1
|  7> O	0	2.709181	0.148099
|  8> H	-0.122498	3.233153	0.940879
|  9> H	-0.836919	2.216592	0.034772
| 10> O	-2.346219	-1.35459	0.148099
| 11> H	-1.501165	-1.833089	0.034772
| 12> H	-2.738743	-1.722662	0.940879
| 13> O	2.34622	1.354591	-0.148098
| 14> H	2.738743	1.722663	-0.940878
| 15> H	1.501165	1.83309	-0.034772
| 16> O	0	-2.709181	-0.148098
| 17> H	0.83692	-2.216591	-0.034772
| 18> H	0.122498	-3.233152	-0.940878
| 19> O	2.34622	-1.35459	0.148099
| 20> H	2.861241	-1.510489	0.940879
| 21> H	2.338085	-0.383502	0.034772
| 22> O	-2.346219	1.354591	-0.148098
| 23> H	-2.861241	1.51049	-0.940878
| 24> H	-2.338084	0.383502	-0.034772
| 25> *
| 26>
| 27> %maxcore 5000
| 28>
| 29> %pal
| 30> nprocs 24
| 31> end
| 32>
| 33>
| 34>                          ****END OF INPUT****
 Total Charge           Charge          ....    0
 Multiplicity           Mult            ....    1
 Number of Electrons    NEL             ....   60
Dispersion correction            ... done
MP2 TOTAL ENERGY:     -458.413914170 Eh
Dispersion correction           -0.005360800
FINAL SINGLE POINT ENERGY      -458.419274969613
Dispersion correction            ... done
MP2 TOTAL ENERGY:     -458.413973963 Eh
Dispersion correction           -0.005388938
FINAL SINGLE POINT ENERGY      -458.419362900725
Dispersion correction            ... done
MP2 TOTAL ENERGY:     -458.413976561 Eh
Dispersion correction           -0.005434771
FINAL SINGLE POINT ENERGY      -458.419411331534
                    ***********************HURRAY********************

CARTESIAN COORDINATES (ANGSTROEM)
---------------------------------
  O      0.001531    2.684383    0.156391
  H     -0.115945    3.205024    0.952041
  H     -0.838612    2.192295    0.035717
  O     -2.325039   -1.340037    0.156302
  H     -1.478696   -1.821365    0.035589
  H     -2.717025   -1.702243    0.951971
  O      2.325038    1.340037   -0.156308
  H      2.717020    1.702239   -0.951981
  H      1.478695    1.821365   -0.035595
  O     -0.001530   -2.684382   -0.156393
  H      0.838612   -2.192294   -0.035714
  H      0.115948   -3.205019   -0.952044
  O      2.324262   -1.344229    0.156345
  H      2.833697   -1.502463    0.952191
  H      2.317547   -0.370599    0.035699
  O     -2.324261    1.344230   -0.156332
  H     -2.833695    1.502467   -0.952177
  H     -2.317545    0.370600   -0.035694

 Multiplicity           Mult            ....    1
 Number of Electrons    NEL             ....   60
 Basis Dimension        Dim             ....  552

ORBITAL ENERGIES
----------------

  NO   OCC          E(Eh)            E(eV)
   0   2.0000     -20.043298      -545.4059
   1   2.0000     -20.043297      -545.4058
   2   2.0000     -20.043287      -545.4056
   3   2.0000     -20.043283      -545.4055
   4   2.0000     -20.043277      -545.4053
   5   2.0000     -20.043275      -545.4052
   6   2.0000      -1.240207       -33.7477
   7   2.0000      -1.232770       -33.5454
   8   2.0000      -1.232764       -33.5452
   9   2.0000      -1.217138       -33.1200
  10   2.0000      -1.217130       -33.1198
  11   2.0000      -1.208856       -32.8946
  12   2.0000      -0.656411       -17.8619
  13   2.0000      -0.654156       -17.8005
  14   2.0000      -0.654136       -17.8000
  15   2.0000      -0.653937       -17.7945
  16   2.0000      -0.653018       -17.7695
  17   2.0000      -0.652998       -17.7690
  18   2.0000      -0.562660       -15.3108
  19   2.0000      -0.541214       -14.7272
  20   2.0000      -0.541199       -14.7268
  21   2.0000      -0.494310       -13.4509
  22   2.0000      -0.494303       -13.4507
  23   2.0000      -0.471542       -12.8313
  24   2.0000      -0.439243       -11.9524
  25   2.0000      -0.439232       -11.9521
  26   2.0000      -0.438831       -11.9412
  27   2.0000      -0.438824       -11.9410
  28   2.0000      -0.437602       -11.9078
  29   2.0000      -0.435926       -11.8622
  30   0.0000       0.011602         0.3157
  31   0.0000       0.026239         0.7140
  32   0.0000       0.026247         0.7142
  33   0.0000       0.034405         0.9362
  34   0.0000       0.041816         1.1379

Dispersion correction            ... done

MULLIKEN ATOMIC CHARGES
-----------------------
   0 O :   -0.424455
   1 H :    0.160176
   2 H :    0.264285
   3 O :   -0.424424
   4 H :    0.264375
   5 H :    0.159966
   6 O :   -0.424424
   7 H :    0.159966
   8 H :    0.264375
   9 O :   -0.424453
  10 H :    0.264285
  11 H :    0.160176
  12 O :   -0.424533
  13 H :    0.159942
  14 H :    0.264668
  15 O :   -0.424530
  16 H :    0.159940
  17 H :    0.264668
Sum of atomic charges:   -0.0000000

LOEWDIN ATOMIC CHARGES
----------------------
   0 O :    1.128858
   1 H :   -0.449576
   2 H :   -0.679329
   3 O :    1.128884
   4 H :   -0.679261
   5 H :   -0.449548
   6 O :    1.128884
   7 H :   -0.449548
   8 H :   -0.679262
   9 O :    1.128858
  10 H :   -0.679328
  11 H :   -0.449576
  12 O :    1.128857
  13 H :   -0.449564
  14 H :   -0.679321
  15 O :    1.128858
  16 H :   -0.449565
  17 H :   -0.679321

  Mayer bond orders larger than 0.100000
B(  0-O ,  1-H ) :   1.0255 B(  0-O ,  2-H ) :   0.8605 B(  0-O ,  8-H ) :   0.1124
B(  2-H , 15-O ) :   0.1124 B(  3-O ,  4-H ) :   0.8603 B(  3-O ,  5-H ) :   1.0257
B(  3-O , 17-H ) :   0.1123 B(  4-H ,  9-O ) :   0.1124 B(  6-O ,  7-H ) :   1.0257
B(  6-O ,  8-H ) :   0.8603 B(  6-O , 14-H ) :   0.1123 B(  9-O , 10-H ) :   0.8605
B(  9-O , 11-H ) :   1.0256 B( 10-H , 12-O ) :   0.1124 B( 12-O , 13-H ) :   1.0258
B( 12-O , 14-H ) :   0.8600 B( 15-O , 16-H ) :   1.0258 B( 15-O , 17-H ) :   0.8600

MP2 TOTAL ENERGY:     -458.413979039 Eh
Dispersion correction           -0.005432579
FINAL SINGLE POINT ENERGY      -458.419411617913

DIPOLE MOMENT
-------------
                                X             Y             Z
Electronic contribution:     -0.00000      -0.00000       0.00000
Nuclear contribution   :     -0.00000       0.00000      -0.00000
                        -----------------------------------------
Total Dipole Moment    :     -0.00000      -0.00000      -0.00000
                        -----------------------------------------
Magnitude (a.u.)       :      0.00000
Magnitude (Debye)      :      0.00001

VIBRATIONAL FREQUENCIES
-----------------------

Scaling factor for frequencies =  1.000000000 (already applied!)

   0:         0.00 cm**-1
   1:         0.00 cm**-1
   2:         0.00 cm**-1
   3:         0.00 cm**-1
   4:         0.00 cm**-1
   5:         0.00 cm**-1
   6:        29.42 cm**-1
   7:        38.28 cm**-1
   8:        42.91 cm**-1
   9:        48.35 cm**-1
  10:        57.58 cm**-1
  11:        84.28 cm**-1
  12:       163.11 cm**-1
  13:       196.21 cm**-1
  14:       207.14 cm**-1
  15:       218.72 cm**-1
  16:       221.22 cm**-1
  17:       230.53 cm**-1
  18:       268.78 cm**-1
  19:       282.12 cm**-1
  20:       298.58 cm**-1
  21:       305.42 cm**-1
  22:       306.36 cm**-1
  23:       337.64 cm**-1
  24:       420.43 cm**-1
  25:       433.96 cm**-1
  26:       440.39 cm**-1
  27:       459.09 cm**-1
  28:       462.02 cm**-1
  29:       465.40 cm**-1
  30:       787.01 cm**-1
  31:       807.20 cm**-1
  32:       810.70 cm**-1
  33:       900.58 cm**-1
  34:       904.89 cm**-1
  35:       977.61 cm**-1
  36:      1654.46 cm**-1
  37:      1665.29 cm**-1
  38:      1666.27 cm**-1
  39:      1693.28 cm**-1
  40:      1694.17 cm**-1
  41:      1710.26 cm**-1
  42:      3363.99 cm**-1
  43:      3438.45 cm**-1
  44:      3440.55 cm**-1
  45:      3495.81 cm**-1
  46:      3497.33 cm**-1
  47:      3514.54 cm**-1
  48:      3913.71 cm**-1
  49:      3913.77 cm**-1
  50:      3914.93 cm**-1
  51:      3914.95 cm**-1
  52:      3916.23 cm**-1
  53:      3916.43 cm**-1

IR SPECTRUM
-----------

 Mode    freq (cm**-1)   T**2         TX         TY         TZ
-------------------------------------------------------------------
   6:        29.42    0.141193  (  0.129987  -0.256165   0.242231)
   7:        38.28    0.194458  ( -0.257621   0.335457   0.124731)
   8:        42.91    0.000036  ( -0.005362   0.000636   0.002702)
   9:        48.35    0.000159  ( -0.001096  -0.008749  -0.008992)
  10:        57.58    0.000015  (  0.001858   0.002955  -0.001771)
  11:        84.28    3.064731  ( -0.057044   0.226041  -1.735045)
  12:       163.11    0.000120  ( -0.008541  -0.000486  -0.006816)
  13:       196.21   79.366399  (  0.268539  -2.811306  -8.449310)
  14:       207.14    0.003644  (  0.010191   0.017855   0.056756)
  15:       218.72   12.183867  (  2.442580   1.688452   1.834885)
  16:       221.22   30.838470  ( -3.005243   4.589808   0.860608)
  17:       230.53    0.000328  ( -0.014875   0.002352  -0.010055)
  18:       268.78  351.562666  (-15.760766 -10.144247   0.505156)
  19:       282.12  348.329622  (-10.258533  15.531198  -1.368942)
  20:       298.58    0.006425  ( -0.018954   0.077361  -0.009021)
  21:       305.42    0.000190  (  0.007897  -0.010929   0.002894)
  22:       306.36    0.000094  (  0.007166   0.005552   0.003425)
  23:       337.64    3.808572  (  0.418831   0.222905  -1.893004)
  24:       420.43    0.000211  ( -0.012382  -0.000033   0.007615)
  25:       433.96   48.829991  ( -2.800956  -6.367620   0.661854)
  26:       440.39   43.969954  (  6.462005  -1.383940   0.545118)
  27:       459.09   31.371639  (  0.781121  -0.186544  -5.543166)
  28:       462.02    0.002814  (  0.023136  -0.004199  -0.047547)
  29:       465.40    0.000485  ( -0.017766  -0.000383   0.013028)
  30:       787.01  261.075333  ( -0.369661  -0.015058  16.153590)
  31:       807.20    0.000009  ( -0.001394  -0.002441  -0.000790)
  32:       810.70    0.000079  (  0.001724  -0.001156  -0.008617)
  33:       900.58  163.596169  (-11.837116   4.835104  -0.317218)
  34:       904.89  162.963762  ( -4.839240 -11.812232  -0.129217)
  35:       977.61    0.000005  (  0.001429   0.001612   0.000029)
  36:      1654.46  102.842775  (  0.097733  -0.081483 -10.140344)
  37:      1665.29    0.000006  (  0.000125  -0.000878   0.002234)
  38:      1666.27    0.000030  (  0.002865  -0.001835  -0.004243)
  39:      1693.28   88.171762  ( -8.447670  -4.099822   0.009580)
  40:      1694.17   87.100140  ( -4.167981   8.349732  -0.100216)
  41:      1710.26    0.000024  (  0.001487  -0.004545   0.001214)
  42:      3363.99    0.000049  (  0.003655  -0.005973   0.000025)
  43:      3438.45  2724.085125  ( 32.956914  40.471114   0.125961)
  44:      3440.55  2714.241954  ( 40.339128 -32.969065   0.193647)
  45:      3495.81    0.000054  (  0.003954  -0.006147   0.000596)
  46:      3497.33    0.000041  (  0.003944  -0.001568   0.004808)
  47:      3514.54  158.626008  (  0.572339   0.267116 -12.578835)
  48:      3913.71  157.405352  (  7.791938  -0.223225  -9.830627)
  49:      3913.77   11.877456  ( -2.139111   0.077846   2.701037)
  50:      3914.93  153.625067  (  6.849042   6.308597   8.180299)
  51:      3914.95    0.337100  (  0.397683   0.152638   0.394525)
  52:      3916.23  127.276491  (  4.162704  -9.195411   5.039126)
  53:      3916.43    7.870180  ( -1.082589   2.229387  -1.314541)

--------------------------
THERMOCHEMISTRY AT 298.15K
--------------------------

Temperature         ... 298.15 K
Pressure            ... 1.00 atm
Total Mass          ... 108.09 AMU

Throughout the following assumptions are being made:
  (1) The electronic state is orbitally nondegenerate
  (2) There are no thermally accessible electronically excited states
  (3) Hindered rotations indicated by low frequency modes are not
      treated as such but are treated as vibrations and this may
      cause some error
  (4) All equations used are the standard statistical mechanics
      equations for an ideal gas
  (5) All vibrations are strictly harmonic

freq.      29.42  E(vib)   ...       0.55
freq.      38.28  E(vib)   ...       0.54
freq.      42.91  E(vib)   ...       0.53
freq.      48.35  E(vib)   ...       0.53
freq.      57.58  E(vib)   ...       0.51
freq.      84.28  E(vib)   ...       0.48
freq.     163.11  E(vib)   ...       0.39
freq.     196.21  E(vib)   ...       0.36
freq.     207.14  E(vib)   ...       0.34
freq.     218.72  E(vib)   ...       0.33
freq.     221.22  E(vib)   ...       0.33
freq.     230.53  E(vib)   ...       0.32
freq.     268.78  E(vib)   ...       0.29
freq.     282.12  E(vib)   ...       0.28
freq.     298.58  E(vib)   ...       0.26
freq.     305.42  E(vib)   ...       0.26
freq.     306.36  E(vib)   ...       0.26
freq.     337.64  E(vib)   ...       0.24
freq.     420.43  E(vib)   ...       0.18
freq.     433.96  E(vib)   ...       0.17
freq.     440.39  E(vib)   ...       0.17
freq.     459.09  E(vib)   ...       0.16
freq.     462.02  E(vib)   ...       0.16
freq.     465.40  E(vib)   ...       0.16
freq.     787.01  E(vib)   ...       0.05
freq.     807.20  E(vib)   ...       0.05
freq.     810.70  E(vib)   ...       0.05
freq.     900.58  E(vib)   ...       0.03
freq.     904.89  E(vib)   ...       0.03
freq.     977.61  E(vib)   ...       0.03
freq.    1654.46  E(vib)   ...       0.00
freq.    1665.29  E(vib)   ...       0.00
freq.    1666.27  E(vib)   ...       0.00
freq.    1693.28  E(vib)   ...       0.00
freq.    1694.17  E(vib)   ...       0.00
freq.    1710.26  E(vib)   ...       0.00
freq.    3363.99  E(vib)   ...       0.00
freq.    3438.45  E(vib)   ...       0.00
freq.    3440.55  E(vib)   ...       0.00
freq.    3495.81  E(vib)   ...       0.00
freq.    3497.33  E(vib)   ...       0.00
freq.    3514.54  E(vib)   ...       0.00
freq.    3913.71  E(vib)   ...       0.00
freq.    3913.77  E(vib)   ...       0.00
freq.    3914.93  E(vib)   ...       0.00
freq.    3914.95  E(vib)   ...       0.00
freq.    3916.23  E(vib)   ...       0.00
freq.    3916.43  E(vib)   ...       0.00

------------
INNER ENERGY
------------

The inner energy is: U= E(el) + E(ZPE) + E(vib) + E(rot) + E(trans)
    E(el)   - is the total energy from the electronic structure calculation
              = E(kin-el) + E(nuc-el) + E(el-el) + E(nuc-nuc)
    E(ZPE)  - the the zero temperature vibrational energy from the frequency calculation
    E(vib)  - the the finite temperature correction to E(ZPE) due to population
              of excited vibrational states
    E(rot)  - is the rotational thermal energy
    E(trans)- is the translational thermal energy

Summary of contributions to the inner energy U:
Electronic energy                ...   -458.41941154 Eh
Zero point energy                ...      0.14928913 Eh      93.68 kcal/mol
Thermal vibrational correction   ...      0.01284516 Eh       8.06 kcal/mol
Thermal rotational correction    ...      0.00141627 Eh       0.89 kcal/mol
Thermal translational correction ...      0.00141627 Eh       0.89 kcal/mol
-----------------------------------------------------------------------
Total thermal energy                   -458.25444471 Eh

Summary of corrections to the electronic energy:
(perhaps to be used in another calculation)
Total thermal correction                  0.01567770 Eh       9.84 kcal/mol
Non-thermal (ZPE) correction              0.14928913 Eh      93.68 kcal/mol
-----------------------------------------------------------------------
Total correction                          0.16496683 Eh     103.52 kcal/mol

--------
ENTHALPY
--------

The enthalpy is H = U + kB*T
                kB is Boltzmann's constant
Total free energy                 ...   -458.25444471 Eh
Thermal Enthalpy correction       ...      0.00094421 Eh       0.59 kcal/mol
-----------------------------------------------------------------------
Total Enthalpy                    ...   -458.25350050 Eh

Note: Only C1 symmetry has been detected, increase convergence thresholds
      if your molecule has a higher symmetry. Symmetry factor of 1.0 is
      used for the rotational entropy correction.

Note: Rotational entropy computed according to Herzberg
Infrared and Raman Spectra, Chapter V,1, Van Nostrand Reinhold, 1945
Point Group:  C1, Symmetry Number:   1
Rotational constants in cm-1:     0.042011     0.041977     0.021415

Vibrational entropy computed according to the QRRHO of S. Grimme
Chem.Eur.J. 2012 18 9955

-------
ENTROPY
-------

The entropy contributions are T*S = T*(S(el)+S(vib)+S(rot)+S(trans))
     S(el)   - electronic entropy
     S(vib)  - vibrational entropy
     S(rot)  - rotational entropy
     S(trans)- translational entropy
The entropies will be listed as mutliplied by the temperature to get
units of energy

Electronic entropy                ...      0.00000000 Eh      0.00 kcal/mol
Vibrational entropy               ...      0.02333068 Eh     14.64 kcal/mol
Rotational entropy                ...      0.01431865 Eh      8.99 kcal/mol
Translational entropy             ...      0.01898142 Eh     11.91 kcal/mol
-----------------------------------------------------------------------
Final entropy term                ...      0.05663075 Eh     35.54 kcal/mol

In case the symmetry of your molecule has not been determined correctly
or in case you have a reason to use a different symmetry number we print
out the resulting rotational entropy values for sn=1,12 :
 --------------------------------------------------------
|  sn= 1 | S(rot)=       0.01431865 Eh      8.99 kcal/mol|
|  sn= 2 | S(rot)=       0.01366419 Eh      8.57 kcal/mol|
|  sn= 3 | S(rot)=       0.01328136 Eh      8.33 kcal/mol|
|  sn= 4 | S(rot)=       0.01300973 Eh      8.16 kcal/mol|
|  sn= 5 | S(rot)=       0.01279905 Eh      8.03 kcal/mol|
|  sn= 6 | S(rot)=       0.01262690 Eh      7.92 kcal/mol|
|  sn= 7 | S(rot)=       0.01248136 Eh      7.83 kcal/mol|
|  sn= 8 | S(rot)=       0.01235528 Eh      7.75 kcal/mol|
|  sn= 9 | S(rot)=       0.01224407 Eh      7.68 kcal/mol|
|  sn=10 | S(rot)=       0.01214459 Eh      7.62 kcal/mol|
|  sn=11 | S(rot)=       0.01205460 Eh      7.56 kcal/mol|
|  sn=12 | S(rot)=       0.01197245 Eh      7.51 kcal/mol|
 --------------------------------------------------------

                             ****ORCA TERMINATED NORMALLY****
TOTAL RUN TIME: 0 days 2 hours 50 minutes 48 seconds 249 msec
