                         Program Version 4.2.0 -  RELEASE  -
|  1> #
|  2> # 07_H2O_6_book dsd-blyp/aug-cc-pvt(+d)z
|  3> #
|  4> ! rijk ri-dsd-blyp/2013 d3bj aug-cc-pvt(+d)z def2/jk def2-tzvp/c grid4 nofinalgrid opt xyzfile numfreq
|  5>
|  6> *xyz 0 1
|  7> O	0.116757	1.553296	0.874144
|  8> H	0.955357	1.526953	0.36374
|  9> H	0.278593	2.140101	1.61497
| 10> O	-0.028991	-1.36957	0.910464
| 11> H	-0.055528	-0.424567	1.109294
| 12> H	-0.872074	-1.539194	0.457007
| 13> O	-2.340721	1.363977	-0.433023
| 14> H	-1.482171	1.543988	-0.013805
| 15> H	-2.349173	1.886417	-1.236377
| 16> O	-2.490803	-1.41279	-0.437012
| 17> H	-2.562332	-0.444637	-0.504051
| 18> H	-3.290032	-1.695404	0.010212
| 19> O	2.424786	1.214249	-0.477895
| 20> H	2.508896	0.237506	-0.500154
| 21> H	2.55493	1.502809	-1.382466
| 22> O	2.31194	-1.486888	-0.434852
| 23> H	1.449966	-1.577886	0.025804
| 24> H	2.919833	-2.054267	0.041233
| 25> *
| 26>
| 27> %maxcore 5000
| 28>
| 29> %pal
| 30> nprocs 24
| 31> end
| 32>
| 33>
| 34>                          ****END OF INPUT****
 Total Charge           Charge          ....    0
 Multiplicity           Mult            ....    1
 Number of Electrons    NEL             ....   60
Dispersion correction            ... done
MP2 TOTAL ENERGY:     -458.414870036 Eh
Dispersion correction           -0.006214654
FINAL SINGLE POINT ENERGY      -458.421084689464
Dispersion correction            ... done
MP2 TOTAL ENERGY:     -458.414904086 Eh
Dispersion correction           -0.006244922
FINAL SINGLE POINT ENERGY      -458.421149008405
Dispersion correction            ... done
MP2 TOTAL ENERGY:     -458.414892035 Eh
Dispersion correction           -0.006300245
FINAL SINGLE POINT ENERGY      -458.421192280117
                    ***********************HURRAY********************

CARTESIAN COORDINATES (ANGSTROEM)
---------------------------------
  O      0.117522    1.542585    0.870363
  H      0.958491    1.514495    0.356370
  H      0.274769    2.128694    1.612551
  O     -0.028600   -1.359747    0.904520
  H     -0.054499   -0.414025    1.103797
  H     -0.872850   -1.530762    0.449397
  O     -2.320771    1.353383   -0.429527
  H     -1.460671    1.532570   -0.007922
  H     -2.334155    1.874716   -1.233380
  O     -2.472514   -1.406004   -0.436144
  H     -2.541618   -0.435258   -0.501662
  H     -3.270815   -1.694072    0.009001
  O      2.404976    1.207360   -0.476299
  H      2.487577    0.226783   -0.497218
  H      2.532934    1.501062   -1.379392
  O      2.293835   -1.474106   -0.430707
  H      1.428816   -1.564103    0.032495
  H      2.906806   -2.039480    0.040990

 Multiplicity           Mult            ....    1
 Number of Electrons    NEL             ....   60
 Basis Dimension        Dim             ....  552

ORBITAL ENERGIES
----------------

  NO   OCC          E(Eh)            E(eV)
   0   2.0000     -20.064664      -545.9873
   1   2.0000     -20.054385      -545.7076
   2   2.0000     -20.052874      -545.6664
   3   2.0000     -20.041774      -545.3644
   4   2.0000     -20.041424      -545.3549
   5   2.0000     -20.028322      -544.9983
   6   2.0000      -1.253842       -34.1188
   7   2.0000      -1.238800       -33.7095
   8   2.0000      -1.233208       -33.5573
   9   2.0000      -1.224471       -33.3195
  10   2.0000      -1.219387       -33.1812
  11   2.0000      -1.203665       -32.7534
  12   2.0000      -0.678851       -18.4725
  13   2.0000      -0.667217       -18.1559
  14   2.0000      -0.663410       -18.0523
  15   2.0000      -0.652634       -17.7591
  16   2.0000      -0.648176       -17.6378
  17   2.0000      -0.634154       -17.2562
  18   2.0000      -0.568722       -15.4757
  19   2.0000      -0.540976       -14.7207
  20   2.0000      -0.528573       -14.3832
  21   2.0000      -0.515698       -14.0329
  22   2.0000      -0.502318       -13.6688
  23   2.0000      -0.480232       -13.0678
  24   2.0000      -0.457538       -12.4503
  25   2.0000      -0.447745       -12.1838
  26   2.0000      -0.447095       -12.1661
  27   2.0000      -0.436613       -11.8809
  28   2.0000      -0.432476       -11.7683
  29   2.0000      -0.422978       -11.5098
  30   0.0000       0.007716         0.2100
  31   0.0000       0.024949         0.6789
  32   0.0000       0.028782         0.7832
  33   0.0000       0.029553         0.8042
  34   0.0000       0.040384         1.0989

Dispersion correction            ... done

MULLIKEN ATOMIC CHARGES
-----------------------
   0 O :   -0.521526
   1 H :    0.310622
   2 H :    0.153308
   3 O :   -0.546763
   4 H :    0.307139
   5 H :    0.270455
   6 O :   -0.457477
   7 H :    0.304992
   8 H :    0.162464
   9 O :   -0.448651
  10 H :    0.296535
  11 H :    0.155641
  12 O :   -0.411560
  13 H :    0.283102
  14 H :    0.142363
  15 O :   -0.427506
  16 H :    0.286927
  17 H :    0.139936
Sum of atomic charges:   -0.0000000

LOEWDIN ATOMIC CHARGES
----------------------
   0 O :    1.149763
   1 H :   -0.659242
   2 H :   -0.425661
   3 O :    1.142544
   4 H :   -0.583598
   5 H :   -0.628370
   6 O :    1.121028
   7 H :   -0.653798
   8 H :   -0.457792
   9 O :    1.109806
  10 H :   -0.661143
  11 H :   -0.463979
  12 O :    1.129238
  13 H :   -0.668650
  14 H :   -0.447742
  15 O :    1.121905
  16 H :   -0.671557
  17 H :   -0.452751

  Mayer bond orders larger than 0.100000
B(  0-O ,  1-H ) :   0.7700 B(  0-O ,  2-H ) :   1.0206 B(  1-H , 12-O ) :   0.1346
B(  3-O ,  4-H ) :   0.8365 B(  3-O ,  5-H ) :   0.8928 B(  3-O , 16-H ) :   0.1098
B(  6-O ,  7-H ) :   0.8247 B(  6-O ,  8-H ) :   1.0306 B(  9-O , 10-H ) :   0.8348
B(  9-O , 11-H ) :   1.0340 B( 12-O , 13-H ) :   0.8159 B( 12-O , 14-H ) :   1.0345
B( 13-H , 15-O ) :   0.1132 B( 15-O , 16-H ) :   0.8056 B( 15-O , 17-H ) :   1.0541

MP2 TOTAL ENERGY:     -458.414895642 Eh
Dispersion correction           -0.006298237
FINAL SINGLE POINT ENERGY      -458.421193879222

DIPOLE MOMENT
-------------
                                X             Y             Z
Electronic contribution:      0.01655      -0.19137      -0.00784
Nuclear contribution   :      0.05484       1.14340      -0.01614
                        -----------------------------------------
Total Dipole Moment    :      0.07140       0.95203      -0.02398
                        -----------------------------------------
Magnitude (a.u.)       :      0.95501
Magnitude (Debye)      :      2.42743

VIBRATIONAL FREQUENCIES
-----------------------

Scaling factor for frequencies =  1.000000000 (already applied!)

   0:         0.00 cm**-1
   1:         0.00 cm**-1
   2:         0.00 cm**-1
   3:         0.00 cm**-1
   4:         0.00 cm**-1
   5:         0.00 cm**-1
   6:        14.05 cm**-1
   7:        35.74 cm**-1
   8:        52.62 cm**-1
   9:        71.94 cm**-1
  10:        89.45 cm**-1
  11:       160.52 cm**-1
  12:       176.91 cm**-1
  13:       186.68 cm**-1
  14:       201.55 cm**-1
  15:       228.97 cm**-1
  16:       236.82 cm**-1
  17:       243.70 cm**-1
  18:       258.92 cm**-1
  19:       277.54 cm**-1
  20:       287.89 cm**-1
  21:       301.96 cm**-1
  22:       313.34 cm**-1
  23:       386.06 cm**-1
  24:       409.63 cm**-1
  25:       450.41 cm**-1
  26:       458.54 cm**-1
  27:       489.26 cm**-1
  28:       552.66 cm**-1
  29:       621.24 cm**-1
  30:       736.17 cm**-1
  31:       757.55 cm**-1
  32:       834.33 cm**-1
  33:       859.09 cm**-1
  34:       909.83 cm**-1
  35:      1026.40 cm**-1
  36:      1652.32 cm**-1
  37:      1662.85 cm**-1
  38:      1666.62 cm**-1
  39:      1684.04 cm**-1
  40:      1696.64 cm**-1
  41:      1727.67 cm**-1
  42:      3301.49 cm**-1
  43:      3381.50 cm**-1
  44:      3437.16 cm**-1
  45:      3539.39 cm**-1
  46:      3598.77 cm**-1
  47:      3614.87 cm**-1
  48:      3752.49 cm**-1
  49:      3903.60 cm**-1
  50:      3910.88 cm**-1
  51:      3912.51 cm**-1
  52:      3914.33 cm**-1
  53:      3914.96 cm**-1

IR SPECTRUM
-----------

 Mode    freq (cm**-1)   T**2         TX         TY         TZ
-------------------------------------------------------------------
   6:        14.05    1.713323  ( -1.091397   0.227989   0.685709)
   7:        35.74    0.686220  (  0.353140  -0.074459   0.745632)
   8:        52.62    2.105385  (  0.736351  -0.170750   1.238554)
   9:        71.94    0.737815  (  0.735700  -0.295064  -0.330903)
  10:        89.45    5.192356  ( -0.149333   0.868459   2.101389)
  11:       160.52    0.382816  (  0.615086  -0.066943  -0.001918)
  12:       176.91   84.849684  (  3.520590  -7.460108  -4.099015)
  13:       186.68    1.495984  (  0.228940   1.183718   0.205872)
  14:       201.55   32.656010  (  5.420995   1.331140  -1.223475)
  15:       228.97   26.932167  ( -3.043459  -3.320773  -2.577206)
  16:       236.82  111.591513  (  0.294323 -10.215500  -2.673658)
  17:       243.70  163.568715  (-11.162348  -2.922127  -5.516510)
  18:       258.92   10.073331  ( -1.118214  -2.946059  -0.379031)
  19:       277.54   82.110949  (  7.313505  -5.246656  -1.046998)
  20:       287.89    4.060772  ( -0.572216   0.940894  -1.687619)
  21:       301.96   41.239761  (  3.694579  -4.349850  -2.944258)
  22:       313.34   58.783583  (  2.781614   3.486546  -6.236201)
  23:       386.06   26.697348  (  4.312457   2.214763   1.787426)
  24:       409.63   57.290226  ( -1.512693   5.536611  -4.934361)
  25:       450.41   35.126946  ( -3.758476  -3.277035   3.203411)
  26:       458.54    7.697597  (  0.237587  -2.253762   1.600533)
  27:       489.26   37.231191  (  5.264194  -2.082446  -2.276592)
  28:       552.66    5.394084  (  1.521303   1.531933  -0.856099)
  29:       621.24   64.629813  (  0.516529   4.798583  -6.429356)
  30:       736.17  177.704305  ( -2.396212  11.904130   5.500379)
  31:       757.55  203.138630  ( -2.115535  -5.136188  13.125651)
  32:       834.33  209.987514  ( 13.798097   1.963066   3.968174)
  33:       859.09   75.443594  (  4.820379   2.940774   6.599954)
  34:       909.83  112.784992  ( -3.382156   9.598612   3.035238)
  35:      1026.40   21.413006  (  2.372743   1.435543  -3.704364)
  36:      1652.32   77.502092  (  7.648074   3.982896   1.773581)
  37:      1662.85   90.015696  ( -4.175409  -0.224328   8.516533)
  38:      1666.62   87.375174  ( -3.237882   8.528506  -2.038596)
  39:      1684.04    4.831384  ( -1.986941  -0.912361  -0.225932)
  40:      1696.64   42.380717  ( -5.598735   3.255453  -0.660994)
  41:      1727.67   21.406732  ( -3.900912   2.032816  -1.434321)
  42:      3301.49  253.156583  ( -1.589543  15.717623   1.893741)
  43:      3381.50  2139.973081  (-42.781753   1.481950  17.535635)
  44:      3437.16  642.086600  (  3.864774 -24.889990   2.763784)
  45:      3539.39  328.405100  ( -3.252790 -17.825034  -0.304322)
  46:      3598.77  852.042254  (-23.814906   3.453608 -16.521656)
  47:      3614.87  229.136833  (  6.537296  13.597918   1.223611)
  48:      3752.49  450.650856  (  7.548152  19.078054   5.450148)
  49:      3903.60   86.330631  ( -2.268923   4.082481   8.032183)
  50:      3910.88   70.786525  (  0.971785   6.086364  -5.726983)
  51:      3912.51   87.002189  (  5.280559   7.047834  -3.073424)
  52:      3914.33  127.342955  ( -6.930100   3.992611  -7.960888)
  53:      3914.96   45.502525  (  6.066331  -2.721867  -1.137362)

--------------------------
THERMOCHEMISTRY AT 298.15K
--------------------------

Temperature         ... 298.15 K
Pressure            ... 1.00 atm
Total Mass          ... 108.09 AMU

Throughout the following assumptions are being made:
  (1) The electronic state is orbitally nondegenerate
  (2) There are no thermally accessible electronically excited states
  (3) Hindered rotations indicated by low frequency modes are not
      treated as such but are treated as vibrations and this may
      cause some error
  (4) All equations used are the standard statistical mechanics
      equations for an ideal gas
  (5) All vibrations are strictly harmonic

freq.      14.05  E(vib)   ...       0.57
freq.      35.74  E(vib)   ...       0.54
freq.      52.62  E(vib)   ...       0.52
freq.      71.94  E(vib)   ...       0.50
freq.      89.45  E(vib)   ...       0.47
freq.     160.52  E(vib)   ...       0.39
freq.     176.91  E(vib)   ...       0.38
freq.     186.68  E(vib)   ...       0.37
freq.     201.55  E(vib)   ...       0.35
freq.     228.97  E(vib)   ...       0.32
freq.     236.82  E(vib)   ...       0.32
freq.     243.70  E(vib)   ...       0.31
freq.     258.92  E(vib)   ...       0.30
freq.     277.54  E(vib)   ...       0.28
freq.     287.89  E(vib)   ...       0.27
freq.     301.96  E(vib)   ...       0.26
freq.     313.34  E(vib)   ...       0.25
freq.     386.06  E(vib)   ...       0.20
freq.     409.63  E(vib)   ...       0.19
freq.     450.41  E(vib)   ...       0.17
freq.     458.54  E(vib)   ...       0.16
freq.     489.26  E(vib)   ...       0.15
freq.     552.66  E(vib)   ...       0.12
freq.     621.24  E(vib)   ...       0.09
freq.     736.17  E(vib)   ...       0.06
freq.     757.55  E(vib)   ...       0.06
freq.     834.33  E(vib)   ...       0.04
freq.     859.09  E(vib)   ...       0.04
freq.     909.83  E(vib)   ...       0.03
freq.    1026.40  E(vib)   ...       0.02
freq.    1652.32  E(vib)   ...       0.00
freq.    1662.85  E(vib)   ...       0.00
freq.    1666.62  E(vib)   ...       0.00
freq.    1684.04  E(vib)   ...       0.00
freq.    1696.64  E(vib)   ...       0.00
freq.    1727.67  E(vib)   ...       0.00
freq.    3301.49  E(vib)   ...       0.00
freq.    3381.50  E(vib)   ...       0.00
freq.    3437.16  E(vib)   ...       0.00
freq.    3539.39  E(vib)   ...       0.00
freq.    3598.77  E(vib)   ...       0.00
freq.    3614.87  E(vib)   ...       0.00
freq.    3752.49  E(vib)   ...       0.00
freq.    3903.60  E(vib)   ...       0.00
freq.    3910.88  E(vib)   ...       0.00
freq.    3912.51  E(vib)   ...       0.00
freq.    3914.33  E(vib)   ...       0.00
freq.    3914.96  E(vib)   ...       0.00

------------
INNER ENERGY
------------

The inner energy is: U= E(el) + E(ZPE) + E(vib) + E(rot) + E(trans)
    E(el)   - is the total energy from the electronic structure calculation
              = E(kin-el) + E(nuc-el) + E(el-el) + E(nuc-nuc)
    E(ZPE)  - the the zero temperature vibrational energy from the frequency calculation
    E(vib)  - the the finite temperature correction to E(ZPE) due to population
              of excited vibrational states
    E(rot)  - is the rotational thermal energy
    E(trans)- is the translational thermal energy

Summary of contributions to the inner energy U:
Electronic energy                ...   -458.42119389 Eh
Zero point energy                ...      0.15013540 Eh      94.21 kcal/mol
Thermal vibrational correction   ...      0.01234680 Eh       7.75 kcal/mol
Thermal rotational correction    ...      0.00141627 Eh       0.89 kcal/mol
Thermal translational correction ...      0.00141627 Eh       0.89 kcal/mol
-----------------------------------------------------------------------
Total thermal energy                   -458.25587915 Eh

Summary of corrections to the electronic energy:
(perhaps to be used in another calculation)
Total thermal correction                  0.01517934 Eh       9.53 kcal/mol
Non-thermal (ZPE) correction              0.15013540 Eh      94.21 kcal/mol
-----------------------------------------------------------------------
Total correction                          0.16531474 Eh     103.74 kcal/mol

--------
ENTHALPY
--------

The enthalpy is H = U + kB*T
                kB is Boltzmann's constant
Total free energy                 ...   -458.25587915 Eh
Thermal Enthalpy correction       ...      0.00094421 Eh       0.59 kcal/mol
-----------------------------------------------------------------------
Total Enthalpy                    ...   -458.25493494 Eh

Note: Only C1 symmetry has been detected, increase convergence thresholds
      if your molecule has a higher symmetry. Symmetry factor of 1.0 is
      used for the rotational entropy correction.

Note: Rotational entropy computed according to Herzberg
Infrared and Raman Spectra, Chapter V,1, Van Nostrand Reinhold, 1945
Point Group:  C1, Symmetry Number:   1
Rotational constants in cm-1:     0.064840     0.036900     0.026973

Vibrational entropy computed according to the QRRHO of S. Grimme
Chem.Eur.J. 2012 18 9955

-------
ENTROPY
-------

The entropy contributions are T*S = T*(S(el)+S(vib)+S(rot)+S(trans))
     S(el)   - electronic entropy
     S(vib)  - vibrational entropy
     S(rot)  - rotational entropy
     S(trans)- translational entropy
The entropies will be listed as mutliplied by the temperature to get
units of energy

Electronic entropy                ...      0.00000000 Eh      0.00 kcal/mol
Vibrational entropy               ...      0.02252652 Eh     14.14 kcal/mol
Rotational entropy                ...      0.01406568 Eh      8.83 kcal/mol
Translational entropy             ...      0.01898142 Eh     11.91 kcal/mol
-----------------------------------------------------------------------
Final entropy term                ...      0.05557362 Eh     34.87 kcal/mol

In case the symmetry of your molecule has not been determined correctly
or in case you have a reason to use a different symmetry number we print
out the resulting rotational entropy values for sn=1,12 :
 --------------------------------------------------------
|  sn= 1 | S(rot)=       0.01406568 Eh      8.83 kcal/mol|
|  sn= 2 | S(rot)=       0.01341122 Eh      8.42 kcal/mol|
|  sn= 3 | S(rot)=       0.01302839 Eh      8.18 kcal/mol|
|  sn= 4 | S(rot)=       0.01275677 Eh      8.00 kcal/mol|
|  sn= 5 | S(rot)=       0.01254608 Eh      7.87 kcal/mol|
|  sn= 6 | S(rot)=       0.01237394 Eh      7.76 kcal/mol|
|  sn= 7 | S(rot)=       0.01222839 Eh      7.67 kcal/mol|
|  sn= 8 | S(rot)=       0.01210231 Eh      7.59 kcal/mol|
|  sn= 9 | S(rot)=       0.01199110 Eh      7.52 kcal/mol|
|  sn=10 | S(rot)=       0.01189162 Eh      7.46 kcal/mol|
|  sn=11 | S(rot)=       0.01180163 Eh      7.41 kcal/mol|
|  sn=12 | S(rot)=       0.01171948 Eh      7.35 kcal/mol|
 --------------------------------------------------------

                             ****ORCA TERMINATED NORMALLY****
TOTAL RUN TIME: 0 days 3 hours 10 minutes 30 seconds 197 msec
