                         Program Version 4.2.0 -  RELEASE  -
|  1> #
|  2> # 08_H2O_6_cage dsd-blyp/aug-cc-pvt(+d)z
|  3> #
|  4> ! rijk ri-dsd-blyp/2013 d3bj aug-cc-pvt(+d)z def2/jk def2-tzvp/c grid4 nofinalgrid opt xyzfile numfreq
|  5>
|  6> *xyz 0 1
|  7> O	0.862065	-1.728538	-0.448765
|  8> H	1.679686	-1.216793	-0.290371
|  9> H	1.141594	-2.607406	-0.70991
| 10> O	-0.751083	0.359939	-1.648316
| 11> H	-0.283702	-0.473988	-1.502279
| 12> H	-1.624922	0.21572	-1.247934
| 13> O	0.590537	1.75631	0.198185
| 14> H	0.069166	1.374794	-0.548651
| 15> H	0.493944	2.707937	0.134574
| 16> O	-0.675492	-0.446436	1.665684
| 17> H	-0.188802	-1.063799	1.102054
| 18> H	-0.260662	0.405216	1.474464
| 19> O	2.803582	0.112403	0.084677
| 20> H	2.165098	0.844551	0.158067
| 21> H	3.282044	0.106258	0.915526
| 22> O	-2.901034	0.010949	0.089937
| 23> H	-2.258917	-0.224605	0.785219
| 24> H	-3.643112	-0.584893	0.198028
| 25> *
| 26>
| 27> %maxcore 5000
| 28>
| 29> %pal
| 30> nprocs 24
| 31> end
| 32>
| 33>
| 34>                          ****END OF INPUT****
 Total Charge           Charge          ....    0
 Multiplicity           Mult            ....    1
 Number of Electrons    NEL             ....   60
Dispersion correction            ... done
MP2 TOTAL ENERGY:     -458.414652125 Eh
Dispersion correction           -0.007114692
FINAL SINGLE POINT ENERGY      -458.421766817642
Dispersion correction            ... done
MP2 TOTAL ENERGY:     -458.414667456 Eh
Dispersion correction           -0.007133462
FINAL SINGLE POINT ENERGY      -458.421800918184
FINAL SINGLE POINT ENERGY      -458.421829608998
Dispersion correction            ... done
MP2 TOTAL ENERGY:     -458.414647388 Eh
Dispersion correction           -0.007184223
FINAL SINGLE POINT ENERGY      -458.421831611020
                    ***********************HURRAY********************

CARTESIAN COORDINATES (ANGSTROEM)
---------------------------------
  O      0.861617   -1.721544   -0.448023
  H      1.678834   -1.204391   -0.288199
  H      1.138009   -2.600903   -0.710168
  O     -0.745410    0.359440   -1.639060
  H     -0.277014   -0.474894   -1.492656
  H     -1.620190    0.214957   -1.236923
  O      0.589100    1.748174    0.194498
  H      0.065296    1.364272   -0.554959
  H      0.497621    2.700419    0.135506
  O     -0.675287   -0.446376    1.659932
  H     -0.187407   -1.064265    1.096469
  H     -0.259937    0.405710    1.468616
  O      2.785568    0.111775    0.084077
  H      2.144323    0.844674    0.156400
  H      3.266130    0.101125    0.913499
  O     -2.886068    0.012605    0.090585
  H     -2.242873   -0.224391    0.787465
  H     -3.632323   -0.578766    0.193131

 Multiplicity           Mult            ....    1
 Number of Electrons    NEL             ....   60
 Basis Dimension        Dim             ....  552

ORBITAL ENERGIES
----------------

  NO   OCC          E(Eh)            E(eV)
   0   2.0000     -20.064133      -545.9728
   1   2.0000     -20.060341      -545.8696
   2   2.0000     -20.059924      -545.8583
   3   2.0000     -20.042427      -545.3822
   4   2.0000     -20.040351      -545.3257
   5   2.0000     -20.035957      -545.2061
   6   2.0000      -1.256095       -34.1801
   7   2.0000      -1.243091       -33.8262
   8   2.0000      -1.237204       -33.6660
   9   2.0000      -1.228272       -33.4230
  10   2.0000      -1.219761       -33.1914
  11   2.0000      -1.209793       -32.9201
  12   2.0000      -0.685537       -18.6544
  13   2.0000      -0.672073       -18.2880
  14   2.0000      -0.661454       -17.9991
  15   2.0000      -0.657982       -17.9046
  16   2.0000      -0.641702       -17.4616
  17   2.0000      -0.638086       -17.3632
  18   2.0000      -0.571594       -15.5539
  19   2.0000      -0.538998       -14.6669
  20   2.0000      -0.531609       -14.4658
  21   2.0000      -0.515509       -14.0277
  22   2.0000      -0.512748       -13.9526
  23   2.0000      -0.488613       -13.2958
  24   2.0000      -0.459001       -12.4901
  25   2.0000      -0.455356       -12.3909
  26   2.0000      -0.451689       -12.2911
  27   2.0000      -0.438103       -11.9214
  28   2.0000      -0.431515       -11.7421
  29   2.0000      -0.427847       -11.6423
  30   0.0000       0.008497         0.2312
  31   0.0000       0.022298         0.6067
  32   0.0000       0.025518         0.6944
  33   0.0000       0.035051         0.9538
  34   0.0000       0.049286         1.3411

Dispersion correction            ... done

MULLIKEN ATOMIC CHARGES
-----------------------
   0 O :   -0.516165
   1 H :    0.330531
   2 H :    0.122434
   3 O :   -0.515812
   4 H :    0.279042
   5 H :    0.294436
   6 O :   -0.468504
   7 H :    0.326815
   8 H :    0.109494
   9 O :   -0.593987
  10 H :    0.322906
  11 H :    0.320225
  12 O :   -0.437714
  13 H :    0.301773
  14 H :    0.151897
  15 O :   -0.469307
  16 H :    0.281463
  17 H :    0.160472
Sum of atomic charges:   -0.0000000

LOEWDIN ATOMIC CHARGES
----------------------
   0 O :    1.130941
   1 H :   -0.648175
   2 H :   -0.443328
   3 O :    1.140457
   4 H :   -0.576752
   5 H :   -0.621268
   6 O :    1.136655
   7 H :   -0.655846
   8 H :   -0.432381
   9 O :    1.123845
  10 H :   -0.595459
  11 H :   -0.573991
  12 O :    1.123384
  13 H :   -0.644011
  14 H :   -0.451981
  15 O :    1.107012
  16 H :   -0.650833
  17 H :   -0.468267

  Mayer bond orders larger than 0.100000
B(  0-O ,  1-H ) :   0.7804 B(  0-O ,  2-H ) :   1.0327 B(  3-O ,  4-H ) :   0.8513
B(  3-O ,  5-H ) :   0.8531 B(  3-O ,  7-H ) :   0.1253 B(  6-O ,  7-H ) :   0.7403
B(  6-O ,  8-H ) :   1.0420 B(  9-O , 10-H ) :   0.8100 B(  9-O , 11-H ) :   0.8231
B( 12-O , 13-H ) :   0.8033 B( 12-O , 14-H ) :   1.0394 B( 15-O , 16-H ) :   0.8347
B( 15-O , 17-H ) :   1.0251

MP2 TOTAL ENERGY:     -458.414649320 Eh
Dispersion correction           -0.007184172
FINAL SINGLE POINT ENERGY      -458.421833491581

DIPOLE MOMENT
-------------
                                X             Y             Z
Electronic contribution:     -0.03148       0.15066      -0.15329
Nuclear contribution   :      0.59217      -0.53654       0.48624
                        -----------------------------------------
Total Dipole Moment    :      0.56068      -0.38588       0.33295
                        -----------------------------------------
Magnitude (a.u.)       :      0.75771
Magnitude (Debye)      :      1.92594

VIBRATIONAL FREQUENCIES
-----------------------

Scaling factor for frequencies =  1.000000000 (already applied!)

   0:         0.00 cm**-1
   1:         0.00 cm**-1
   2:         0.00 cm**-1
   3:         0.00 cm**-1
   4:         0.00 cm**-1
   5:         0.00 cm**-1
   6:        50.30 cm**-1
   7:        57.90 cm**-1
   8:        76.42 cm**-1
   9:       103.13 cm**-1
  10:       123.48 cm**-1
  11:       153.28 cm**-1
  12:       182.11 cm**-1
  13:       195.17 cm**-1
  14:       214.26 cm**-1
  15:       227.92 cm**-1
  16:       236.39 cm**-1
  17:       237.96 cm**-1
  18:       251.10 cm**-1
  19:       272.27 cm**-1
  20:       289.26 cm**-1
  21:       295.57 cm**-1
  22:       389.06 cm**-1
  23:       406.34 cm**-1
  24:       452.07 cm**-1
  25:       468.28 cm**-1
  26:       486.82 cm**-1
  27:       552.12 cm**-1
  28:       572.03 cm**-1
  29:       641.89 cm**-1
  30:       702.82 cm**-1
  31:       742.39 cm**-1
  32:       798.96 cm**-1
  33:       816.18 cm**-1
  34:       879.33 cm**-1
  35:      1008.44 cm**-1
  36:      1656.42 cm**-1
  37:      1664.72 cm**-1
  38:      1678.83 cm**-1
  39:      1692.48 cm**-1
  40:      1704.14 cm**-1
  41:      1720.12 cm**-1
  42:      3240.18 cm**-1
  43:      3461.96 cm**-1
  44:      3515.63 cm**-1
  45:      3562.66 cm**-1
  46:      3628.11 cm**-1
  47:      3709.53 cm**-1
  48:      3743.78 cm**-1
  49:      3781.37 cm**-1
  50:      3907.70 cm**-1
  51:      3909.00 cm**-1
  52:      3910.63 cm**-1
  53:      3920.23 cm**-1

IR SPECTRUM
-----------

 Mode    freq (cm**-1)   T**2         TX         TY         TZ
-------------------------------------------------------------------
   6:        50.30    1.258680  ( -1.098212  -0.176699   0.146247)
   7:        57.90    3.370203  ( -1.426423   1.003307   0.573494)
   8:        76.42    0.374013  ( -0.015601  -0.409637   0.453836)
   9:       103.13    3.291068  (  1.333322  -0.330564  -1.184925)
  10:       123.48    0.061651  ( -0.183818   0.049115   0.159531)
  11:       153.28    3.173686  ( -1.743928   0.363790   0.007617)
  12:       182.11   47.343199  (  2.408689  -4.635469  -4.478152)
  13:       195.17   47.262872  (  5.049164  -4.331400  -1.734297)
  14:       214.26   23.026380  ( -4.699481   0.358045   0.901700)
  15:       227.92   12.429252  (  3.072958   1.105017   1.328577)
  16:       236.39   26.262826  (  0.059391   2.775825  -4.307446)
  17:       237.96   22.920333  (  3.452767  -2.846883   1.701172)
  18:       251.10   10.854731  (  2.954787   1.424314   0.308701)
  19:       272.27  121.113618  (-10.216810  -3.934758   1.117176)
  20:       289.26   28.262578  ( -2.923393  -2.892558  -3.368896)
  21:       295.57   77.132237  ( -3.843196   0.718175   7.864242)
  22:       389.06   21.213842  (  1.016651   2.626220   3.644617)
  23:       406.34   97.796324  (  9.145389  -3.096920   2.137118)
  24:       452.07   32.387388  (  4.653361   3.206962  -0.670084)
  25:       468.28   58.257725  ( -2.852153   1.826223  -6.840165)
  26:       486.82   24.796934  ( -0.202995   4.368632  -2.381340)
  27:       552.12  198.875624  ( -4.291130 -12.426274  -5.103875)
  28:       572.03   87.903177  ( -8.861900   2.765215   1.312818)
  29:       641.89  203.588437  ( -5.978152   2.853399 -12.637573)
  30:       702.82   17.842788  ( -1.418253  -3.497770  -1.896563)
  31:       742.39  232.696153  ( -9.098914  -6.359355 -10.462530)
  32:       798.96  199.921426  (  4.331501   4.369188 -12.730661)
  33:       816.18  108.301314  (  9.843508  -2.821295  -1.856596)
  34:       879.33   22.587803  (  2.977463  -0.764965  -3.624548)
  35:      1008.44   77.613930  (  5.299954   0.594265  -7.012223)
  36:      1656.42  117.383537  ( -5.626027  -0.195847   9.257052)
  37:      1664.72   76.779196  (  3.253366   7.810822  -2.277249)
  38:      1678.83   64.508702  (  6.553926  -4.210443   1.956254)
  39:      1692.48   59.120043  (  1.436023   7.162604  -2.398955)
  40:      1704.14   16.979210  (  3.269795  -1.688163  -1.854119)
  41:      1720.12   47.576361  (  4.213619   1.619689  -5.215207)
  42:      3240.18  772.456067  (-17.180246 -13.607873 -17.091548)
  43:      3461.96  689.534223  ( 14.864797  20.610227   6.617445)
  44:      3515.63  588.871610  ( 19.458506  -2.408938  14.298084)
  45:      3562.66  540.144652  ( 21.254274  -9.391291  -0.451807)
  46:      3628.11  446.013494  ( 18.371948   3.390804  -9.848222)
  47:      3709.53  146.270021  (  2.462359   1.696917 -11.718672)
  48:      3743.78  326.541728  ( 16.538964  -7.248950  -0.676104)
  49:      3781.37  460.130582  ( -3.442127  20.931675   3.185485)
  50:      3907.70   51.406518  (  1.860993   6.559226   2.218056)
  51:      3909.00   98.736767  (  6.607324  -5.814232   4.612455)
  52:      3910.63  101.429078  ( -3.279065  -8.739078  -3.782238)
  53:      3920.23   82.256342  (  8.353740   2.774622   2.184682)

--------------------------
THERMOCHEMISTRY AT 298.15K
--------------------------

Temperature         ... 298.15 K
Pressure            ... 1.00 atm
Total Mass          ... 108.09 AMU

Throughout the following assumptions are being made:
  (1) The electronic state is orbitally nondegenerate
  (2) There are no thermally accessible electronically excited states
  (3) Hindered rotations indicated by low frequency modes are not
      treated as such but are treated as vibrations and this may
      cause some error
  (4) All equations used are the standard statistical mechanics
      equations for an ideal gas
  (5) All vibrations are strictly harmonic

freq.      50.30  E(vib)   ...       0.52
freq.      57.90  E(vib)   ...       0.51
freq.      76.42  E(vib)   ...       0.49
freq.     103.13  E(vib)   ...       0.46
freq.     123.48  E(vib)   ...       0.43
freq.     153.28  E(vib)   ...       0.40
freq.     182.11  E(vib)   ...       0.37
freq.     195.17  E(vib)   ...       0.36
freq.     214.26  E(vib)   ...       0.34
freq.     227.92  E(vib)   ...       0.33
freq.     236.39  E(vib)   ...       0.32
freq.     237.96  E(vib)   ...       0.32
freq.     251.10  E(vib)   ...       0.30
freq.     272.27  E(vib)   ...       0.29
freq.     289.26  E(vib)   ...       0.27
freq.     295.57  E(vib)   ...       0.27
freq.     389.06  E(vib)   ...       0.20
freq.     406.34  E(vib)   ...       0.19
freq.     452.07  E(vib)   ...       0.16
freq.     468.28  E(vib)   ...       0.16
freq.     486.82  E(vib)   ...       0.15
freq.     552.12  E(vib)   ...       0.12
freq.     572.03  E(vib)   ...       0.11
freq.     641.89  E(vib)   ...       0.09
freq.     702.82  E(vib)   ...       0.07
freq.     742.39  E(vib)   ...       0.06
freq.     798.96  E(vib)   ...       0.05
freq.     816.18  E(vib)   ...       0.05
freq.     879.33  E(vib)   ...       0.04
freq.    1008.44  E(vib)   ...       0.02
freq.    1656.42  E(vib)   ...       0.00
freq.    1664.72  E(vib)   ...       0.00
freq.    1678.83  E(vib)   ...       0.00
freq.    1692.48  E(vib)   ...       0.00
freq.    1704.14  E(vib)   ...       0.00
freq.    1720.12  E(vib)   ...       0.00
freq.    3240.18  E(vib)   ...       0.00
freq.    3461.96  E(vib)   ...       0.00
freq.    3515.63  E(vib)   ...       0.00
freq.    3562.66  E(vib)   ...       0.00
freq.    3628.11  E(vib)   ...       0.00
freq.    3709.53  E(vib)   ...       0.00
freq.    3743.78  E(vib)   ...       0.00
freq.    3781.37  E(vib)   ...       0.00
freq.    3907.70  E(vib)   ...       0.00
freq.    3909.00  E(vib)   ...       0.00
freq.    3910.63  E(vib)   ...       0.00
freq.    3920.23  E(vib)   ...       0.00

------------
INNER ENERGY
------------

The inner energy is: U= E(el) + E(ZPE) + E(vib) + E(rot) + E(trans)
    E(el)   - is the total energy from the electronic structure calculation
              = E(kin-el) + E(nuc-el) + E(el-el) + E(nuc-nuc)
    E(ZPE)  - the the zero temperature vibrational energy from the frequency calculation
    E(vib)  - the the finite temperature correction to E(ZPE) due to population
              of excited vibrational states
    E(rot)  - is the rotational thermal energy
    E(trans)- is the translational thermal energy

Summary of contributions to the inner energy U:
Electronic energy                ...   -458.42183355 Eh
Zero point energy                ...      0.15102135 Eh      94.77 kcal/mol
Thermal vibrational correction   ...      0.01185461 Eh       7.44 kcal/mol
Thermal rotational correction    ...      0.00141627 Eh       0.89 kcal/mol
Thermal translational correction ...      0.00141627 Eh       0.89 kcal/mol
-----------------------------------------------------------------------
Total thermal energy                   -458.25612505 Eh

Summary of corrections to the electronic energy:
(perhaps to be used in another calculation)
Total thermal correction                  0.01468715 Eh       9.22 kcal/mol
Non-thermal (ZPE) correction              0.15102135 Eh      94.77 kcal/mol
-----------------------------------------------------------------------
Total correction                          0.16570850 Eh     103.98 kcal/mol

--------
ENTHALPY
--------

The enthalpy is H = U + kB*T
                kB is Boltzmann's constant
Total free energy                 ...   -458.25612505 Eh
Thermal Enthalpy correction       ...      0.00094421 Eh       0.59 kcal/mol
-----------------------------------------------------------------------
Total Enthalpy                    ...   -458.25518084 Eh

Note: Only C1 symmetry has been detected, increase convergence thresholds
      if your molecule has a higher symmetry. Symmetry factor of 1.0 is
      used for the rotational entropy correction.

Note: Rotational entropy computed according to Herzberg
Infrared and Raman Spectra, Chapter V,1, Van Nostrand Reinhold, 1945
Point Group:  C1, Symmetry Number:   1
Rotational constants in cm-1:     0.075696     0.038967     0.037121

Vibrational entropy computed according to the QRRHO of S. Grimme
Chem.Eur.J. 2012 18 9955

-------
ENTROPY
-------

The entropy contributions are T*S = T*(S(el)+S(vib)+S(rot)+S(trans))
     S(el)   - electronic entropy
     S(vib)  - vibrational entropy
     S(rot)  - rotational entropy
     S(trans)- translational entropy
The entropies will be listed as mutliplied by the temperature to get
units of energy

Electronic entropy                ...      0.00000000 Eh      0.00 kcal/mol
Vibrational entropy               ...      0.02102730 Eh     13.19 kcal/mol
Rotational entropy                ...      0.01381611 Eh      8.67 kcal/mol
Translational entropy             ...      0.01898142 Eh     11.91 kcal/mol
-----------------------------------------------------------------------
Final entropy term                ...      0.05382483 Eh     33.78 kcal/mol

In case the symmetry of your molecule has not been determined correctly
or in case you have a reason to use a different symmetry number we print
out the resulting rotational entropy values for sn=1,12 :
 --------------------------------------------------------
|  sn= 1 | S(rot)=       0.01381611 Eh      8.67 kcal/mol|
|  sn= 2 | S(rot)=       0.01316165 Eh      8.26 kcal/mol|
|  sn= 3 | S(rot)=       0.01277882 Eh      8.02 kcal/mol|
|  sn= 4 | S(rot)=       0.01250720 Eh      7.85 kcal/mol|
|  sn= 5 | S(rot)=       0.01229651 Eh      7.72 kcal/mol|
|  sn= 6 | S(rot)=       0.01212436 Eh      7.61 kcal/mol|
|  sn= 7 | S(rot)=       0.01197882 Eh      7.52 kcal/mol|
|  sn= 8 | S(rot)=       0.01185274 Eh      7.44 kcal/mol|
|  sn= 9 | S(rot)=       0.01174153 Eh      7.37 kcal/mol|
|  sn=10 | S(rot)=       0.01164205 Eh      7.31 kcal/mol|
|  sn=11 | S(rot)=       0.01155206 Eh      7.25 kcal/mol|
|  sn=12 | S(rot)=       0.01146991 Eh      7.20 kcal/mol|
 --------------------------------------------------------

                             ****ORCA TERMINATED NORMALLY****
TOTAL RUN TIME: 0 days 3 hours 57 minutes 2 seconds 543 msec
