                         Program Version 4.2.0 -  RELEASE  -
|  1> #
|  2> # 09_H2O_6_prism dsd-blyp/aug-cc-pvt(+d)z
|  3> #
|  4> ! rijk ri-dsd-blyp/2013 d3bj aug-cc-pvt(+d)z def2/jk def2-tzvp/c grid4 nofinalgrid opt xyzfile numfreq
|  5>
|  6> *xyz 0 1
|  7> O	-1.511782	-0.232325	1.434522
|  8> H	-0.6139	-0.631798	1.542476
|  9> H	-2.015087	-0.484249	2.21021
| 10> O	-1.744551	-0.350365	-1.322141
| 11> H	-1.89002	-0.475498	-0.368433
| 12> H	-2.508917	-0.726304	-1.761973
| 13> O	-0.568902	2.010658	-0.079448
| 14> H	-0.9578	1.52123	0.658817
| 15> H	-0.991476	1.598457	-0.84212
| 16> O	0.972064	-1.194842	1.413465
| 17> H	0.986177	-1.536208	0.500658
| 18> H	1.544338	-0.420911	1.334663
| 19> O	0.983916	-1.359847	-1.372465
| 20> H	0.077993	-1.073694	-1.552782
| 21> H	1.480193	-0.535792	-1.283351
| 22> O	2.003223	1.063257	-0.092296
| 23> H	1.144078	1.530799	-0.098089
| 24> H	2.67269	1.741694	-0.193152
| 25> *
| 26>
| 27> %maxcore 5000
| 28>
| 29> %pal
| 30> nprocs 24
| 31> end
| 32>
| 33>
| 34>                          ****END OF INPUT****
 Total Charge           Charge          ....    0
 Multiplicity           Mult            ....    1
 Number of Electrons    NEL             ....   60
Dispersion correction            ... done
MP2 TOTAL ENERGY:     -458.414616414 Eh
Dispersion correction           -0.007359488
FINAL SINGLE POINT ENERGY      -458.421975901403
Dispersion correction            ... done
MP2 TOTAL ENERGY:     -458.414630010 Eh
Dispersion correction           -0.007369591
FINAL SINGLE POINT ENERGY      -458.421999601280
Dispersion correction            ... done
MP2 TOTAL ENERGY:     -458.414614716 Eh
Dispersion correction           -0.007403678
FINAL SINGLE POINT ENERGY      -458.422018394278
                    ***********************HURRAY********************

CARTESIAN COORDINATES (ANGSTROEM)
---------------------------------
  O     -1.505116   -0.232892    1.431563
  H     -0.603705   -0.633386    1.539607
  H     -2.013773   -0.480919    2.204876
  O     -1.737549   -0.352284   -1.319051
  H     -1.882378   -0.476854   -0.363710
  H     -2.499197   -0.726640   -1.764690
  O     -0.564185    2.004908   -0.080526
  H     -0.953245    1.515483    0.658586
  H     -0.986505    1.592022   -0.843371
  O      0.967727   -1.190049    1.409989
  H      0.980420   -1.532118    0.495633
  H      1.540213   -0.415826    1.330744
  O      0.975116   -1.354156   -1.367442
  H      0.068205   -1.068006   -1.547303
  H      1.472759   -0.530461   -1.277482
  O      1.996510    1.061305   -0.090545
  H      1.135362    1.530064   -0.097357
  H      2.671578    1.734071   -0.190960

 Multiplicity           Mult            ....    1
 Number of Electrons    NEL             ....   60
 Basis Dimension        Dim             ....  552

ORBITAL ENERGIES
----------------

  NO   OCC          E(Eh)            E(eV)
   0   2.0000     -20.070094      -546.1350
   1   2.0000     -20.064236      -545.9756
   2   2.0000     -20.054172      -545.7018
   3   2.0000     -20.053263      -545.6770
   4   2.0000     -20.042045      -545.3718
   5   2.0000     -20.032960      -545.1246
   6   2.0000      -1.259172       -34.2638
   7   2.0000      -1.244965       -33.8772
   8   2.0000      -1.241038       -33.7704
   9   2.0000      -1.231839       -33.5200
  10   2.0000      -1.221587       -33.2411
  11   2.0000      -1.210260       -32.9329
  12   2.0000      -0.688166       -18.7260
  13   2.0000      -0.671700       -18.2779
  14   2.0000      -0.666212       -18.1285
  15   2.0000      -0.651218       -17.7205
  16   2.0000      -0.641089       -17.4449
  17   2.0000      -0.637536       -17.3482
  18   2.0000      -0.563876       -15.3438
  19   2.0000      -0.557043       -15.1579
  20   2.0000      -0.533825       -14.5261
  21   2.0000      -0.523865       -14.2551
  22   2.0000      -0.513943       -13.9851
  23   2.0000      -0.489062       -13.3081
  24   2.0000      -0.461650       -12.5621
  25   2.0000      -0.459794       -12.5116
  26   2.0000      -0.448895       -12.2150
  27   2.0000      -0.445931       -12.1344
  28   2.0000      -0.437837       -11.9141
  29   2.0000      -0.421729       -11.4758
  30   0.0000       0.006747         0.1836
  31   0.0000       0.021510         0.5853
  32   0.0000       0.025186         0.6854
  33   0.0000       0.043960         1.1962
  34   0.0000       0.050517         1.3746

Dispersion correction            ... done

MULLIKEN ATOMIC CHARGES
-----------------------
   0 O :   -0.505978
   1 H :    0.329042
   2 H :    0.134993
   3 O :   -0.507403
   4 H :    0.320332
   5 H :    0.134786
   6 O :   -0.535320
   7 H :    0.307620
   8 H :    0.259671
   9 O :   -0.505711
  10 H :    0.314234
  11 H :    0.251753
  12 O :   -0.567498
  13 H :    0.328129
  14 H :    0.272391
  15 O :   -0.520891
  16 H :    0.352196
  17 H :    0.137655
Sum of atomic charges:   -0.0000000

LOEWDIN ATOMIC CHARGES
----------------------
   0 O :    1.135014
   1 H :   -0.663145
   2 H :   -0.437499
   3 O :    1.122046
   4 H :   -0.624609
   5 H :   -0.448412
   6 O :    1.129023
   7 H :   -0.580846
   8 H :   -0.537822
   9 O :    1.136603
  10 H :   -0.601687
  11 H :   -0.539506
  12 O :    1.110662
  13 H :   -0.613807
  14 H :   -0.580986
  15 O :    1.113245
  16 H :   -0.660050
  17 H :   -0.458227

  Mayer bond orders larger than 0.100000
B(  0-O ,  1-H ) :   0.7348 B(  0-O ,  2-H ) :   1.0186 B(  1-H ,  9-O ) :   0.1394
B(  3-O ,  4-H ) :   0.7925 B(  3-O ,  5-H ) :   1.0241 B(  6-O ,  7-H ) :   0.8328
B(  6-O ,  8-H ) :   0.9042 B(  9-O , 10-H ) :   0.8106 B(  9-O , 11-H ) :   0.9005
B( 12-O , 13-H ) :   0.8221 B( 12-O , 14-H ) :   0.8784 B( 15-O , 16-H ) :   0.7617
B( 15-O , 17-H ) :   1.0148

MP2 TOTAL ENERGY:     -458.414610256 Eh
Dispersion correction           -0.007410233
FINAL SINGLE POINT ENERGY      -458.422020489058

DIPOLE MOMENT
-------------
                                X             Y             Z
Electronic contribution:      0.17306      -0.11472       0.00268
Nuclear contribution   :     -1.11143       0.52752       0.14699
                        -----------------------------------------
Total Dipole Moment    :     -0.93837       0.41280       0.14967
                        -----------------------------------------
Magnitude (a.u.)       :      1.03602
Magnitude (Debye)      :      2.63336

VIBRATIONAL FREQUENCIES
-----------------------

Scaling factor for frequencies =  1.000000000 (already applied!)

   0:         0.00 cm**-1
   1:         0.00 cm**-1
   2:         0.00 cm**-1
   3:         0.00 cm**-1
   4:         0.00 cm**-1
   5:         0.00 cm**-1
   6:        60.88 cm**-1
   7:        72.66 cm**-1
   8:        78.06 cm**-1
   9:        92.25 cm**-1
  10:        96.44 cm**-1
  11:       148.28 cm**-1
  12:       173.16 cm**-1
  13:       182.41 cm**-1
  14:       210.11 cm**-1
  15:       217.03 cm**-1
  16:       240.68 cm**-1
  17:       249.60 cm**-1
  18:       264.11 cm**-1
  19:       281.66 cm**-1
  20:       292.85 cm**-1
  21:       368.01 cm**-1
  22:       381.14 cm**-1
  23:       432.17 cm**-1
  24:       443.99 cm**-1
  25:       471.73 cm**-1
  26:       504.40 cm**-1
  27:       544.48 cm**-1
  28:       559.84 cm**-1
  29:       627.68 cm**-1
  30:       649.14 cm**-1
  31:       688.66 cm**-1
  32:       729.27 cm**-1
  33:       843.43 cm**-1
  34:       888.64 cm**-1
  35:      1026.22 cm**-1
  36:      1653.84 cm**-1
  37:      1666.74 cm**-1
  38:      1672.64 cm**-1
  39:      1695.36 cm**-1
  40:      1709.43 cm**-1
  41:      1727.94 cm**-1
  42:      3227.53 cm**-1
  43:      3462.06 cm**-1
  44:      3571.48 cm**-1
  45:      3592.60 cm**-1
  46:      3708.29 cm**-1
  47:      3730.42 cm**-1
  48:      3778.95 cm**-1
  49:      3793.79 cm**-1
  50:      3824.36 cm**-1
  51:      3909.45 cm**-1
  52:      3909.84 cm**-1
  53:      3912.15 cm**-1

IR SPECTRUM
-----------

 Mode    freq (cm**-1)   T**2         TX         TY         TZ
-------------------------------------------------------------------
   6:        60.88    2.511078  ( -0.441926   0.048271  -1.521003)
   7:        72.66    0.200288  (  0.174119  -0.172910  -0.374262)
   8:        78.06    1.220138  ( -0.229882  -0.049015   1.079300)
   9:        92.25    0.442674  (  0.351237  -0.101758   0.555835)
  10:        96.44    0.752919  ( -0.743153  -0.299729   0.332875)
  11:       148.28    1.100342  (  0.918125  -0.448019  -0.238048)
  12:       173.16   11.440122  ( -2.226339  -1.003555  -2.340174)
  13:       182.41    2.252913  (  1.372548   0.223536   0.564851)
  14:       210.11   22.580787  ( -3.178353   2.966332  -1.918263)
  15:       217.03    9.763965  (  2.563693  -1.674107   0.623547)
  16:       240.68   39.242538  ( -3.276794  -0.175864   5.336125)
  17:       249.60   35.522809  ( -3.366164   4.883518   0.585658)
  18:       264.11   51.386618  ( -0.463562  -1.860615  -6.907231)
  19:       281.66   48.817349  (  2.150647   6.636169  -0.391580)
  20:       292.85   22.008140  ( -4.201166   2.087568   0.020047)
  21:       368.01   59.262076  ( -5.792454   4.776529  -1.701271)
  22:       381.14    6.157129  (  0.172742   2.352579   0.769844)
  23:       432.17   47.575313  ( -2.470559   3.354477   5.497194)
  24:       443.99   39.888083  ( -4.506487   2.143173  -3.871236)
  25:       471.73   41.876772  ( -1.886321   1.439177  -6.020576)
  26:       504.40   24.393030  (  4.056263  -1.334057  -2.481945)
  27:       544.48  222.362519  ( 14.353409   3.810567   1.349726)
  28:       559.84   22.527977  (  0.032484  -4.546514  -1.362399)
  29:       627.68  286.098312  ( -1.130802  -2.995676 -16.608598)
  30:       649.14  167.061355  ( -2.771892   5.051694  11.569717)
  31:       688.66  183.939791  (  7.903953 -10.983796  -0.907484)
  32:       729.27  265.009086  ( -9.672548  12.201139  -4.752169)
  33:       843.43   37.020350  (  4.627282  -3.609460   1.606365)
  34:       888.64   57.109937  ( -3.037243   2.114115   6.589052)
  35:      1026.22   67.477527  ( -3.112197  -6.137268  -4.486168)
  36:      1653.84  167.447912  (  8.218438   9.985886   0.432746)
  37:      1666.74   66.899766  (  2.224171  -7.313546   2.909446)
  38:      1672.64   70.040265  ( -3.069587  -1.371526   7.663995)
  39:      1695.36   16.870807  (  3.511895  -2.090156   0.410665)
  40:      1709.43  117.496328  (  3.218721   9.240789  -4.663044)
  41:      1727.94   54.714138  (  3.042758   1.167578  -6.640220)
  42:      3227.53  875.302961  ( 27.890697  -9.762231  -1.452871)
  43:      3462.06  758.309115  ( 26.335669  -8.000895  -0.852851)
  44:      3571.48  152.304734  ( -5.603744   0.036892 -10.995519)
  45:      3592.60  604.563859  (  1.965742  -2.241508 -24.406461)
  46:      3708.29  176.153774  (-10.214895   8.127639   2.398160)
  47:      3730.42  216.806420  ( -5.752182 -10.270739   8.844814)
  48:      3778.95   60.533878  ( -5.387454   5.156025  -2.219149)
  49:      3793.79  477.168789  ( 17.592125  12.750867   2.258606)
  50:      3824.36  229.201169  (  4.784202   2.943266  14.058797)
  51:      3909.45   33.872951  (  0.877446  -1.314772  -5.601287)
  52:      3909.84  116.096054  (  9.683090   1.871914  -4.339328)
  53:      3912.15   99.261032  ( -6.850999  -2.412378  -6.819478)

--------------------------
THERMOCHEMISTRY AT 298.15K
--------------------------

Temperature         ... 298.15 K
Pressure            ... 1.00 atm
Total Mass          ... 108.09 AMU

Throughout the following assumptions are being made:
  (1) The electronic state is orbitally nondegenerate
  (2) There are no thermally accessible electronically excited states
  (3) Hindered rotations indicated by low frequency modes are not
      treated as such but are treated as vibrations and this may
      cause some error
  (4) All equations used are the standard statistical mechanics
      equations for an ideal gas
  (5) All vibrations are strictly harmonic

freq.      60.88  E(vib)   ...       0.51
freq.      72.66  E(vib)   ...       0.49
freq.      78.06  E(vib)   ...       0.49
freq.      92.25  E(vib)   ...       0.47
freq.      96.44  E(vib)   ...       0.47
freq.     148.28  E(vib)   ...       0.41
freq.     173.16  E(vib)   ...       0.38
freq.     182.41  E(vib)   ...       0.37
freq.     210.11  E(vib)   ...       0.34
freq.     217.03  E(vib)   ...       0.34
freq.     240.68  E(vib)   ...       0.31
freq.     249.60  E(vib)   ...       0.31
freq.     264.11  E(vib)   ...       0.29
freq.     281.66  E(vib)   ...       0.28
freq.     292.85  E(vib)   ...       0.27
freq.     368.01  E(vib)   ...       0.21
freq.     381.14  E(vib)   ...       0.21
freq.     432.17  E(vib)   ...       0.18
freq.     443.99  E(vib)   ...       0.17
freq.     471.73  E(vib)   ...       0.15
freq.     504.40  E(vib)   ...       0.14
freq.     544.48  E(vib)   ...       0.12
freq.     559.84  E(vib)   ...       0.12
freq.     627.68  E(vib)   ...       0.09
freq.     649.14  E(vib)   ...       0.08
freq.     688.66  E(vib)   ...       0.07
freq.     729.27  E(vib)   ...       0.06
freq.     843.43  E(vib)   ...       0.04
freq.     888.64  E(vib)   ...       0.04
freq.    1026.22  E(vib)   ...       0.02
freq.    1653.84  E(vib)   ...       0.00
freq.    1666.74  E(vib)   ...       0.00
freq.    1672.64  E(vib)   ...       0.00
freq.    1695.36  E(vib)   ...       0.00
freq.    1709.43  E(vib)   ...       0.00
freq.    1727.94  E(vib)   ...       0.00
freq.    3227.53  E(vib)   ...       0.00
freq.    3462.06  E(vib)   ...       0.00
freq.    3571.48  E(vib)   ...       0.00
freq.    3592.60  E(vib)   ...       0.00
freq.    3708.29  E(vib)   ...       0.00
freq.    3730.42  E(vib)   ...       0.00
freq.    3778.95  E(vib)   ...       0.00
freq.    3793.79  E(vib)   ...       0.00
freq.    3824.36  E(vib)   ...       0.00
freq.    3909.45  E(vib)   ...       0.00
freq.    3909.84  E(vib)   ...       0.00
freq.    3912.15  E(vib)   ...       0.00

------------
INNER ENERGY
------------

The inner energy is: U= E(el) + E(ZPE) + E(vib) + E(rot) + E(trans)
    E(el)   - is the total energy from the electronic structure calculation
              = E(kin-el) + E(nuc-el) + E(el-el) + E(nuc-nuc)
    E(ZPE)  - the the zero temperature vibrational energy from the frequency calculation
    E(vib)  - the the finite temperature correction to E(ZPE) due to population
              of excited vibrational states
    E(rot)  - is the rotational thermal energy
    E(trans)- is the translational thermal energy

Summary of contributions to the inner energy U:
Electronic energy                ...   -458.42202053 Eh
Zero point energy                ...      0.15119252 Eh      94.87 kcal/mol
Thermal vibrational correction   ...      0.01184538 Eh       7.43 kcal/mol
Thermal rotational correction    ...      0.00141627 Eh       0.89 kcal/mol
Thermal translational correction ...      0.00141627 Eh       0.89 kcal/mol
-----------------------------------------------------------------------
Total thermal energy                   -458.25615009 Eh

Summary of corrections to the electronic energy:
(perhaps to be used in another calculation)
Total thermal correction                  0.01467793 Eh       9.21 kcal/mol
Non-thermal (ZPE) correction              0.15119252 Eh      94.87 kcal/mol
-----------------------------------------------------------------------
Total correction                          0.16587044 Eh     104.09 kcal/mol

--------
ENTHALPY
--------

The enthalpy is H = U + kB*T
                kB is Boltzmann's constant
Total free energy                 ...   -458.25615009 Eh
Thermal Enthalpy correction       ...      0.00094421 Eh       0.59 kcal/mol
-----------------------------------------------------------------------
Total Enthalpy                    ...   -458.25520588 Eh

Note: Only C1 symmetry has been detected, increase convergence thresholds
      if your molecule has a higher symmetry. Symmetry factor of 1.0 is
      used for the rotational entropy correction.

Note: Rotational entropy computed according to Herzberg
Infrared and Raman Spectra, Chapter V,1, Van Nostrand Reinhold, 1945
Point Group:  C1, Symmetry Number:   1
Rotational constants in cm-1:     0.057535     0.047549     0.045973

Vibrational entropy computed according to the QRRHO of S. Grimme
Chem.Eur.J. 2012 18 9955

-------
ENTROPY
-------

The entropy contributions are T*S = T*(S(el)+S(vib)+S(rot)+S(trans))
     S(el)   - electronic entropy
     S(vib)  - vibrational entropy
     S(rot)  - rotational entropy
     S(trans)- translational entropy
The entropies will be listed as mutliplied by the temperature to get
units of energy

Electronic entropy                ...      0.00000000 Eh      0.00 kcal/mol
Vibrational entropy               ...      0.02100223 Eh     13.18 kcal/mol
Rotational entropy                ...      0.01375069 Eh      8.63 kcal/mol
Translational entropy             ...      0.01898142 Eh     11.91 kcal/mol
-----------------------------------------------------------------------
Final entropy term                ...      0.05373434 Eh     33.72 kcal/mol

In case the symmetry of your molecule has not been determined correctly
or in case you have a reason to use a different symmetry number we print
out the resulting rotational entropy values for sn=1,12 :
 --------------------------------------------------------
|  sn= 1 | S(rot)=       0.01375069 Eh      8.63 kcal/mol|
|  sn= 2 | S(rot)=       0.01309623 Eh      8.22 kcal/mol|
|  sn= 3 | S(rot)=       0.01271340 Eh      7.98 kcal/mol|
|  sn= 4 | S(rot)=       0.01244177 Eh      7.81 kcal/mol|
|  sn= 5 | S(rot)=       0.01223109 Eh      7.68 kcal/mol|
|  sn= 6 | S(rot)=       0.01205894 Eh      7.57 kcal/mol|
|  sn= 7 | S(rot)=       0.01191340 Eh      7.48 kcal/mol|
|  sn= 8 | S(rot)=       0.01178732 Eh      7.40 kcal/mol|
|  sn= 9 | S(rot)=       0.01167611 Eh      7.33 kcal/mol|
|  sn=10 | S(rot)=       0.01157663 Eh      7.26 kcal/mol|
|  sn=11 | S(rot)=       0.01148664 Eh      7.21 kcal/mol|
|  sn=12 | S(rot)=       0.01140449 Eh      7.16 kcal/mol|
 --------------------------------------------------------

                             ****ORCA TERMINATED NORMALLY****
TOTAL RUN TIME: 0 days 4 hours 38 minutes 10 seconds 352 msec
