                         Program Version 4.2.0 -  RELEASE  -
|  1> #
|  2> # 01_H2O b2-plyp/aug-cc-pvt(+d)z
|  3> #
|  4> ! rijk ri-b2plyp d3bj aug-cc-pvt(+d)z def2/jk def2-tzvp/c grid4 nofinalgrid opt xyzfile numfreq
|  5>
|  6> *xyz 0 1
|  7> O	0	0	0.12434822
|  8> H	0	-1.43139324	-0.98674827
|  9> H	0	1.43139324	-0.98674827
| 10> *
| 11>
| 12> %maxcore 5000
| 13>
| 14> %pal
| 15> nprocs 24
| 16> end
| 17>
| 18>
| 19>                          ****END OF INPUT****
 Total Charge           Charge          ....    0
 Multiplicity           Mult            ....    1
 Number of Electrons    NEL             ....   10
Dispersion correction            ... done
MP2 TOTAL ENERGY:      -76.112035167 Eh
Dispersion correction           -0.000418181
FINAL SINGLE POINT ENERGY       -76.112453347555
Dispersion correction            ... done
MP2 TOTAL ENERGY:      -76.147338450 Eh
Dispersion correction           -0.000432720
FINAL SINGLE POINT ENERGY       -76.147771170208
FINAL SINGLE POINT ENERGY       -76.187778229784
FINAL SINGLE POINT ENERGY       -76.232101568900
FINAL SINGLE POINT ENERGY       -76.279753919712
FINAL SINGLE POINT ENERGY       -76.328486891598
FINAL SINGLE POINT ENERGY       -76.373839933912
FINAL SINGLE POINT ENERGY       -76.406827165509
FINAL SINGLE POINT ENERGY       -76.412083833120
FINAL SINGLE POINT ENERGY       -76.414699202696
FINAL SINGLE POINT ENERGY       -76.414824545108
FINAL SINGLE POINT ENERGY       -76.414826057726
FINAL SINGLE POINT ENERGY       -76.414720718957
Dispersion correction            ... done
MP2 TOTAL ENERGY:      -76.414592134 Eh
Dispersion correction           -0.000234287
FINAL SINGLE POINT ENERGY       -76.414826420985
                    ***********************HURRAY********************

CARTESIAN COORDINATES (ANGSTROEM)
---------------------------------
  O      0.000000    0.000000   -0.225515
  H      0.000000   -0.761131   -0.811817
  H      0.000000    0.761131   -0.811816

 Multiplicity           Mult            ....    1
 Number of Electrons    NEL             ....   10
 Basis Dimension        Dim             ....   92

ORBITAL ENERGIES
----------------

  NO   OCC          E(Eh)            E(eV)
   0   2.0000     -19.736515      -537.0579
   1   2.0000      -1.158090       -31.5132
   2   2.0000      -0.613567       -16.6960
   3   2.0000      -0.475737       -12.9455
   4   2.0000      -0.400752       -10.9050
   5   0.0000       0.001889         0.0514
   6   0.0000       0.033330         0.9069
   7   0.0000       0.100926         2.7463
   8   0.0000       0.122684         3.3384
   9   0.0000       0.131959         3.5908

Dispersion correction            ... done

MULLIKEN ATOMIC CHARGES
-----------------------
   0 O :   -0.386588
   1 H :    0.193294
   2 H :    0.193294
Sum of atomic charges:   -0.0000000

LOEWDIN ATOMIC CHARGES
----------------------
   0 O :    1.031793
   1 H :   -0.515896
   2 H :   -0.515897

  Mayer bond orders larger than 0.100000
B(  0-O ,  1-H ) :   1.0015 B(  0-O ,  2-H ) :   1.0015

MP2 TOTAL ENERGY:      -76.414592129 Eh
Dispersion correction           -0.000234287
FINAL SINGLE POINT ENERGY       -76.414826415860

DIPOLE MOMENT
-------------
                                X             Y             Z
Electronic contribution:     -0.00000       0.00000       0.24853
Nuclear contribution   :      0.00000      -0.00000      -0.97603
                        -----------------------------------------
Total Dipole Moment    :     -0.00000       0.00000      -0.72750
                        -----------------------------------------
Magnitude (a.u.)       :      0.72750
Magnitude (Debye)      :      1.84915

VIBRATIONAL FREQUENCIES
-----------------------

Scaling factor for frequencies =  1.000000000 (already applied!)

   0:         0.00 cm**-1
   1:         0.00 cm**-1
   2:         0.00 cm**-1
   3:         0.00 cm**-1
   4:         0.00 cm**-1
   5:         0.00 cm**-1
   6:      1634.11 cm**-1
   7:      3811.88 cm**-1
   8:      3921.75 cm**-1

IR SPECTRUM
-----------

 Mode    freq (cm**-1)   T**2         TX         TY         TZ
-------------------------------------------------------------------
   6:      1634.11   75.434204  ( -0.000000   0.000003  -8.685287)
   7:      3811.88    5.350283  ( -0.000000   0.000307   2.313068)
   8:      3921.75   70.766829  ( -0.000000   8.412302  -0.000084)

--------------------------
THERMOCHEMISTRY AT 298.15K
--------------------------

Temperature         ... 298.15 K
Pressure            ... 1.00 atm
Total Mass          ... 18.02 AMU

Throughout the following assumptions are being made:
  (1) The electronic state is orbitally nondegenerate
  (2) There are no thermally accessible electronically excited states
  (3) Hindered rotations indicated by low frequency modes are not
      treated as such but are treated as vibrations and this may
      cause some error
  (4) All equations used are the standard statistical mechanics
      equations for an ideal gas
  (5) All vibrations are strictly harmonic

freq.    1634.11  E(vib)   ...       0.00
freq.    3811.88  E(vib)   ...       0.00
freq.    3921.75  E(vib)   ...       0.00

------------
INNER ENERGY
------------

The inner energy is: U= E(el) + E(ZPE) + E(vib) + E(rot) + E(trans)
    E(el)   - is the total energy from the electronic structure calculation
              = E(kin-el) + E(nuc-el) + E(el-el) + E(nuc-nuc)
    E(ZPE)  - the the zero temperature vibrational energy from the frequency calculation
    E(vib)  - the the finite temperature correction to E(ZPE) due to population
              of excited vibrational states
    E(rot)  - is the rotational thermal energy
    E(trans)- is the translational thermal energy

Summary of contributions to the inner energy U:
Electronic energy                ...    -76.41482641 Eh
Zero point energy                ...      0.02134129 Eh      13.39 kcal/mol
Thermal vibrational correction   ...      0.00000280 Eh       0.00 kcal/mol
Thermal rotational correction    ...      0.00141627 Eh       0.89 kcal/mol
Thermal translational correction ...      0.00141627 Eh       0.89 kcal/mol
-----------------------------------------------------------------------
Total thermal energy                    -76.39064978 Eh

Summary of corrections to the electronic energy:
(perhaps to be used in another calculation)
Total thermal correction                  0.00283534 Eh       1.78 kcal/mol
Non-thermal (ZPE) correction              0.02134129 Eh      13.39 kcal/mol
-----------------------------------------------------------------------
Total correction                          0.02417663 Eh      15.17 kcal/mol

--------
ENTHALPY
--------

The enthalpy is H = U + kB*T
                kB is Boltzmann's constant
Total free energy                 ...    -76.39064978 Eh
Thermal Enthalpy correction       ...      0.00094421 Eh       0.59 kcal/mol
-----------------------------------------------------------------------
Total Enthalpy                    ...    -76.38970557 Eh

Note: Rotational entropy computed according to Herzberg
Infrared and Raman Spectra, Chapter V,1, Van Nostrand Reinhold, 1945
Point Group:  C2v, Symmetry Number:   2
Rotational constants in cm-1:    27.390919    14.434035     9.452766

Vibrational entropy computed according to the QRRHO of S. Grimme
Chem.Eur.J. 2012 18 9955

-------
ENTROPY
-------

The entropy contributions are T*S = T*(S(el)+S(vib)+S(rot)+S(trans))
     S(el)   - electronic entropy
     S(vib)  - vibrational entropy
     S(rot)  - rotational entropy
     S(trans)- translational entropy
The entropies will be listed as mutliplied by the temperature to get
units of energy

Electronic entropy                ...      0.00000000 Eh      0.00 kcal/mol
Vibrational entropy               ...      0.00000316 Eh      0.00 kcal/mol
Rotational entropy                ...      0.00497289 Eh      3.12 kcal/mol
Translational entropy             ...      0.01644380 Eh     10.32 kcal/mol
-----------------------------------------------------------------------
Final entropy term                ...      0.02141985 Eh     13.44 kcal/mol

In case the symmetry of your molecule has not been determined correctly
or in case you have a reason to use a different symmetry number we print
out the resulting rotational entropy values for sn=1,12 :
 --------------------------------------------------------
|  sn= 1 | S(rot)=       0.00562734 Eh      3.53 kcal/mol|
|  sn= 2 | S(rot)=       0.00497289 Eh      3.12 kcal/mol|
|  sn= 3 | S(rot)=       0.00459005 Eh      2.88 kcal/mol|
|  sn= 4 | S(rot)=       0.00431843 Eh      2.71 kcal/mol|
|  sn= 5 | S(rot)=       0.00410774 Eh      2.58 kcal/mol|
|  sn= 6 | S(rot)=       0.00393560 Eh      2.47 kcal/mol|
|  sn= 7 | S(rot)=       0.00379005 Eh      2.38 kcal/mol|
|  sn= 8 | S(rot)=       0.00366397 Eh      2.30 kcal/mol|
|  sn= 9 | S(rot)=       0.00355277 Eh      2.23 kcal/mol|
|  sn=10 | S(rot)=       0.00345329 Eh      2.17 kcal/mol|
|  sn=11 | S(rot)=       0.00336330 Eh      2.11 kcal/mol|
|  sn=12 | S(rot)=       0.00328114 Eh      2.06 kcal/mol|
 --------------------------------------------------------

-------------------
GIBBS FREE ENERGY
-------------------

The Gibbs free energy is G = H - T*S

Total enthalpy                    ...    -76.38970557 Eh
Total entropy correction          ...     -0.02141985 Eh    -13.44 kcal/mol
-----------------------------------------------------------------------
Final Gibbs free energy         ...    -76.41112542 Eh

For completeness - the Gibbs free energy minus the electronic energy
G-E(el)                           ...      0.00370099 Eh      2.32 kcal/mol

                             ****ORCA TERMINATED NORMALLY****
TOTAL RUN TIME: 0 days 0 hours 1 minutes 37 seconds 217 msec
