                         Program Version 4.2.0 -  RELEASE  -
|  1> #
|  2> # 02_H2O_2 b2-plyp/aug-cc-pvt(+d)z
|  3> #
|  4> ! rijk ri-b2plyp d3bj aug-cc-pvt(+d)z def2/jk def2-tzvp/c grid4 nofinalgrid opt xyzfile numfreq
|  5>
|  6> *xyz 0 1
|  7> O	0.12629641	2.81863838	0
|  8> H	-1.55012056	3.50228598	0
|  9> H	-0.11213325	1.01044862	0
| 10> O	-0.11743248	-2.68035303	0
| 11> H	0.7607884	-3.35371171	-1.4365769
| 12> H	0.7607884	-3.35371171	1.4365769
| 13> *
| 14>
| 15> %maxcore 5000
| 16>
| 17> %pal
| 18> nprocs 24
| 19> end
| 20>
| 21>
| 22>                          ****END OF INPUT****
 Total Charge           Charge          ....    0
 Multiplicity           Mult            ....    1
 Number of Electrons    NEL             ....   20
Dispersion correction            ... done
MP2 TOTAL ENERGY:     -152.223640990 Eh
Dispersion correction           -0.000929554
FINAL SINGLE POINT ENERGY      -152.224570544033
Dispersion correction            ... done
MP2 TOTAL ENERGY:     -152.272315256 Eh
Dispersion correction           -0.000954429
FINAL SINGLE POINT ENERGY      -152.273269684784
FINAL SINGLE POINT ENERGY      -152.326728885169
FINAL SINGLE POINT ENERGY      -152.384825023053
FINAL SINGLE POINT ENERGY      -152.447254925085
FINAL SINGLE POINT ENERGY      -152.513374760359
FINAL SINGLE POINT ENERGY      -152.581983853604
FINAL SINGLE POINT ENERGY      -152.651081354961
FINAL SINGLE POINT ENERGY      -152.717469547527
FINAL SINGLE POINT ENERGY      -152.775831211705
FINAL SINGLE POINT ENERGY      -152.837489714688
FINAL SINGLE POINT ENERGY      -152.816687254560
FINAL SINGLE POINT ENERGY      -152.837817779460
FINAL SINGLE POINT ENERGY      -152.837865433942
FINAL SINGLE POINT ENERGY      -152.837869468470
FINAL SINGLE POINT ENERGY      -152.837870326069
FINAL SINGLE POINT ENERGY      -152.837870845439
FINAL SINGLE POINT ENERGY      -152.837871750199
Dispersion correction            ... done
MP2 TOTAL ENERGY:     -152.836947898 Eh
Dispersion correction           -0.000924176
FINAL SINGLE POINT ENERGY      -152.837872074191
                    ***********************HURRAY********************

CARTESIAN COORDINATES (ANGSTROEM)
---------------------------------
  O      0.060823    1.318394   -0.000148
  H     -0.819893    1.699780    0.000148
  H     -0.078231    0.360227   -0.000004
  O     -0.077702   -1.580062    0.000131
  H      0.391229   -1.927430   -0.763959
  H      0.391962   -1.927312    0.763832

 Multiplicity           Mult            ....    1
 Number of Electrons    NEL             ....   20
 Basis Dimension        Dim             ....  184

ORBITAL ENERGIES
----------------

  NO   OCC          E(Eh)            E(eV)
   0   2.0000     -19.761815      -537.7463
   1   2.0000     -19.704867      -536.1967
   2   2.0000      -1.184938       -32.2438
   3   2.0000      -1.126801       -30.6618
   4   2.0000      -0.639366       -17.3980
   5   2.0000      -0.589523       -16.0417
   6   2.0000      -0.505493       -13.7552
   7   2.0000      -0.448742       -12.2109
   8   2.0000      -0.423099       -11.5131
   9   2.0000      -0.372572       -10.1382
  10   0.0000      -0.006089        -0.1657
  11   0.0000       0.025647         0.6979
  12   0.0000       0.030311         0.8248
  13   0.0000       0.058745         1.5985
  14   0.0000       0.091750         2.4966

Dispersion correction            ... done

MULLIKEN ATOMIC CHARGES
-----------------------
   0 O :   -0.449541
   1 H :    0.169643
   2 H :    0.271016
   3 O :   -0.378767
   4 H :    0.193823
   5 H :    0.193827
Sum of atomic charges:   -0.0000000

LOEWDIN ATOMIC CHARGES
----------------------
   0 O :    1.038890
   1 H :   -0.517034
   2 H :   -0.677484
   3 O :    1.090382
   4 H :   -0.467383
   5 H :   -0.467371

  Mayer bond orders larger than 0.100000
B(  0-O ,  1-H ) :   1.0368 B(  0-O ,  2-H ) :   0.9150 B(  3-O ,  4-H ) :   1.0005
B(  3-O ,  5-H ) :   1.0005

MP2 TOTAL ENERGY:     -152.836948164 Eh
Dispersion correction           -0.000924039
FINAL SINGLE POINT ENERGY      -152.837872203098

DIPOLE MOMENT
-------------
                                X             Y             Z
Electronic contribution:      0.03517       0.02153       0.00000
Nuclear contribution   :     -0.06757      -1.05826       0.00004
                        -----------------------------------------
Total Dipole Moment    :     -0.03239      -1.03673       0.00004
                        -----------------------------------------
Magnitude (a.u.)       :      1.03724
Magnitude (Debye)      :      2.63645

VIBRATIONAL FREQUENCIES
-----------------------

Scaling factor for frequencies =  1.000000000 (already applied!)

   0:         0.00 cm**-1
   1:         0.00 cm**-1
   2:         0.00 cm**-1
   3:         0.00 cm**-1
   4:         0.00 cm**-1
   5:         0.00 cm**-1
   6:       102.55 cm**-1
   7:       145.34 cm**-1
   8:       151.95 cm**-1
   9:       186.22 cm**-1
  10:       360.16 cm**-1
  11:       624.31 cm**-1
  12:      1633.70 cm**-1
  13:      1654.27 cm**-1
  14:      3701.58 cm**-1
  15:      3806.18 cm**-1
  16:      3893.44 cm**-1
  17:      3912.83 cm**-1

IR SPECTRUM
-----------

 Mode    freq (cm**-1)   T**2         TX         TY         TZ
-------------------------------------------------------------------
   6:       102.55  151.641281  (  0.011896   0.017654  12.314253)
   7:       145.34   17.476833  (  0.051441   0.124416   4.178362)
   8:       151.95  167.140687  ( -4.867022 -11.977078   0.048943)
   9:       186.22  116.232484  (  3.354294  10.246015  -0.019325)
  10:       360.16   52.275323  ( -7.059322   1.562458   0.003620)
  11:       624.31   94.003512  (  0.004025   0.001052   9.695540)
  12:      1633.70   91.288810  (  8.479288  -4.403461  -0.003630)
  13:      1654.27   38.226466  ( -4.691835  -4.026555   0.001975)
  14:      3701.58  320.440034  ( -0.977236  17.874145  -0.001089)
  15:      3806.18   10.913396  ( -2.934027   1.518183  -0.001660)
  16:      3893.44   97.618158  (  4.046131  -9.013711  -0.001025)
  17:      3912.83   92.128263  (  0.003903   0.001097   9.598346)

--------------------------
THERMOCHEMISTRY AT 298.15K
--------------------------

Temperature         ... 298.15 K
Pressure            ... 1.00 atm
Total Mass          ... 36.03 AMU

Throughout the following assumptions are being made:
  (1) The electronic state is orbitally nondegenerate
  (2) There are no thermally accessible electronically excited states
  (3) Hindered rotations indicated by low frequency modes are not
      treated as such but are treated as vibrations and this may
      cause some error
  (4) All equations used are the standard statistical mechanics
      equations for an ideal gas
  (5) All vibrations are strictly harmonic

freq.     102.55  E(vib)   ...       0.46
freq.     145.34  E(vib)   ...       0.41
freq.     151.95  E(vib)   ...       0.40
freq.     186.22  E(vib)   ...       0.37
freq.     360.16  E(vib)   ...       0.22
freq.     624.31  E(vib)   ...       0.09
freq.    1633.70  E(vib)   ...       0.00
freq.    1654.27  E(vib)   ...       0.00
freq.    3701.58  E(vib)   ...       0.00
freq.    3806.18  E(vib)   ...       0.00
freq.    3893.44  E(vib)   ...       0.00
freq.    3912.83  E(vib)   ...       0.00

------------
INNER ENERGY
------------

The inner energy is: U= E(el) + E(ZPE) + E(vib) + E(rot) + E(trans)
    E(el)   - is the total energy from the electronic structure calculation
              = E(kin-el) + E(nuc-el) + E(el-el) + E(nuc-nuc)
    E(ZPE)  - the the zero temperature vibrational energy from the frequency calculation
    E(vib)  - the the finite temperature correction to E(ZPE) due to population
              of excited vibrational states
    E(rot)  - is the rotational thermal energy
    E(trans)- is the translational thermal energy

Summary of contributions to the inner energy U:
Electronic energy                ...   -152.83787220 Eh
Zero point energy                ...      0.04595641 Eh      28.84 kcal/mol
Thermal vibrational correction   ...      0.00310657 Eh       1.95 kcal/mol
Thermal rotational correction    ...      0.00141627 Eh       0.89 kcal/mol
Thermal translational correction ...      0.00141627 Eh       0.89 kcal/mol
-----------------------------------------------------------------------
Total thermal energy                   -152.78597668 Eh

Summary of corrections to the electronic energy:
(perhaps to be used in another calculation)
Total thermal correction                  0.00593911 Eh       3.73 kcal/mol
Non-thermal (ZPE) correction              0.04595641 Eh      28.84 kcal/mol
-----------------------------------------------------------------------
Total correction                          0.05189552 Eh      32.56 kcal/mol

--------
ENTHALPY
--------

The enthalpy is H = U + kB*T
                kB is Boltzmann's constant
Total free energy                 ...   -152.78597668 Eh
Thermal Enthalpy correction       ...      0.00094421 Eh       0.59 kcal/mol
-----------------------------------------------------------------------
Total Enthalpy                    ...   -152.78503248 Eh

Note: Only C1 symmetry has been detected, increase convergence thresholds
      if your molecule has a higher symmetry. Symmetry factor of 1.0 is
      used for the rotational entropy correction.

Note: Rotational entropy computed according to Herzberg
Infrared and Raman Spectra, Chapter V,1, Van Nostrand Reinhold, 1945
Point Group:  C1, Symmetry Number:   1
Rotational constants in cm-1:     7.265308     0.214936     0.214847

Vibrational entropy computed according to the QRRHO of S. Grimme
Chem.Eur.J. 2012 18 9955

-------
ENTROPY
-------

The entropy contributions are T*S = T*(S(el)+S(vib)+S(rot)+S(trans))
     S(el)   - electronic entropy
     S(vib)  - vibrational entropy
     S(rot)  - rotational entropy
     S(trans)- translational entropy
The entropies will be listed as mutliplied by the temperature to get
units of energy

Electronic entropy                ...      0.00000000 Eh      0.00 kcal/mol
Vibrational entropy               ...      0.00581751 Eh      3.65 kcal/mol
Rotational entropy                ...      0.01002640 Eh      6.29 kcal/mol
Translational entropy             ...      0.01742549 Eh     10.93 kcal/mol
-----------------------------------------------------------------------
Final entropy term                ...      0.03326939 Eh     20.88 kcal/mol

In case the symmetry of your molecule has not been determined correctly
or in case you have a reason to use a different symmetry number we print
out the resulting rotational entropy values for sn=1,12 :
 --------------------------------------------------------
|  sn= 1 | S(rot)=       0.01002640 Eh      6.29 kcal/mol|
|  sn= 2 | S(rot)=       0.00937194 Eh      5.88 kcal/mol|
|  sn= 3 | S(rot)=       0.00898911 Eh      5.64 kcal/mol|
|  sn= 4 | S(rot)=       0.00871748 Eh      5.47 kcal/mol|
|  sn= 5 | S(rot)=       0.00850679 Eh      5.34 kcal/mol|
|  sn= 6 | S(rot)=       0.00833465 Eh      5.23 kcal/mol|
|  sn= 7 | S(rot)=       0.00818910 Eh      5.14 kcal/mol|
|  sn= 8 | S(rot)=       0.00806303 Eh      5.06 kcal/mol|
|  sn= 9 | S(rot)=       0.00795182 Eh      4.99 kcal/mol|
|  sn=10 | S(rot)=       0.00785234 Eh      4.93 kcal/mol|
|  sn=11 | S(rot)=       0.00776235 Eh      4.87 kcal/mol|
|  sn=12 | S(rot)=       0.00768019 Eh      4.82 kcal/mol|
 --------------------------------------------------------

-------------------
GIBBS FREE ENERGY
-------------------

The Gibbs free energy is G = H - T*S

Total enthalpy                    ...   -152.78503248 Eh
Total entropy correction          ...     -0.03326939 Eh    -20.88 kcal/mol
-----------------------------------------------------------------------
Final Gibbs free energy         ...   -152.81830187 Eh

For completeness - the Gibbs free energy minus the electronic energy
G-E(el)                           ...      0.01957034 Eh     12.28 kcal/mol

                             ****ORCA TERMINATED NORMALLY****
TOTAL RUN TIME: 0 days 0 hours 7 minutes 20 seconds 54 msec
