                         Program Version 4.2.0 -  RELEASE  -
|  1> #
|  2> # 03_H2O_3 b2-plyp/aug-cc-pvt(+d)z
|  3> #
|  4> ! rijk ri-b2plyp d3bj aug-cc-pvt(+d)z def2/jk def2-tzvp/c grid4 nofinalgrid opt xyzfile numfreq
|  5>
|  6> *xyz 0 1
|  7> O	-1.476811	-0.647642	-0.082126
|  8> H	-0.613415	-1.087457	-0.037065
|  9> H	-2.026236	-1.086841	0.568502
| 10> O	1.305672	-0.945117	-0.091536
| 11> H	1.973931	-1.196903	0.547209
| 12> H	1.22684	0.019839	-0.021857
| 13> O	0.169678	1.599733	0.108456
| 14> H	-0.629586	1.051269	0.060063
| 15> H	0.080159	2.244313	-0.595195
| 16> *
| 17>
| 18> %maxcore 5000
| 19>
| 20> %pal
| 21> nprocs 24
| 22> end
| 23>
| 24>
| 25>                          ****END OF INPUT****
 Total Charge           Charge          ....    0
 Multiplicity           Mult            ....    1
 Number of Electrons    NEL             ....   30
Dispersion correction            ... done
MP2 TOTAL ENERGY:     -229.268063962 Eh
Dispersion correction           -0.002169568
FINAL SINGLE POINT ENERGY      -229.270233529665
Dispersion correction            ... done
MP2 TOTAL ENERGY:     -229.268115349 Eh
Dispersion correction           -0.002166780
FINAL SINGLE POINT ENERGY      -229.270282128702
FINAL SINGLE POINT ENERGY      -229.270290048118
Dispersion correction            ... done
MP2 TOTAL ENERGY:     -229.268118487 Eh
Dispersion correction           -0.002175078
FINAL SINGLE POINT ENERGY      -229.270293564996
                    ***********************HURRAY********************

CARTESIAN COORDINATES (ANGSTROEM)
---------------------------------
  O     -1.471908   -0.646080   -0.081318
  H     -0.604127   -1.085002   -0.036466
  H     -2.027069   -1.081967    0.569005
  O      1.302389   -0.941763   -0.091764
  H      1.971240   -1.200525    0.545915
  H      1.220282    0.026549   -0.021721
  O      0.167955    1.594833    0.108145
  H     -0.632648    1.041943    0.059546
  H      0.084117    2.243205   -0.594890

 Multiplicity           Mult            ....    1
 Number of Electrons    NEL             ....   30
 Basis Dimension        Dim             ....  276

ORBITAL ENERGIES
----------------

  NO   OCC          E(Eh)            E(eV)
   0   2.0000     -19.732635      -536.9523
   1   2.0000     -19.730948      -536.9064
   2   2.0000     -19.730277      -536.8881
   3   2.0000      -1.166505       -31.7422
   4   2.0000      -1.149127       -31.2693
   5   2.0000      -1.147566       -31.2269
   6   2.0000      -0.636247       -17.3132
   7   2.0000      -0.605365       -16.4728
   8   2.0000      -0.603560       -16.4237
   9   2.0000      -0.490925       -13.3587
  10   2.0000      -0.485689       -13.2163
  11   2.0000      -0.455363       -12.3911
  12   2.0000      -0.407447       -11.0872
  13   2.0000      -0.399458       -10.8698
  14   2.0000      -0.394423       -10.7328
  15   0.0000       0.000624         0.0170
  16   0.0000       0.021670         0.5897
  17   0.0000       0.022640         0.6161
  18   0.0000       0.048996         1.3332
  19   0.0000       0.055926         1.5218

Dispersion correction            ... done

MULLIKEN ATOMIC CHARGES
-----------------------
   0 O :   -0.441891
   1 H :    0.279230
   2 H :    0.162769
   3 O :   -0.452512
   4 H :    0.158380
   5 H :    0.290028
   6 O :   -0.441542
   7 H :    0.292228
   8 H :    0.153309
Sum of atomic charges:   -0.0000000

LOEWDIN ATOMIC CHARGES
----------------------
   0 O :    1.096944
   1 H :   -0.618537
   2 H :   -0.469901
   3 O :    1.094148
   4 H :   -0.472889
   5 H :   -0.627981
   6 O :    1.095393
   7 H :   -0.628581
   8 H :   -0.468596

  Mayer bond orders larger than 0.100000
B(  0-O ,  1-H ) :   0.8836 B(  0-O ,  2-H ) :   1.0293 B(  3-O ,  4-H ) :   1.0338
B(  3-O ,  5-H ) :   0.8687 B(  6-O ,  7-H ) :   0.8665 B(  6-O ,  8-H ) :   1.0361

MP2 TOTAL ENERGY:     -229.268118435 Eh
Dispersion correction           -0.002175268
FINAL SINGLE POINT ENERGY      -229.270293702823

DIPOLE MOMENT
-------------
                                X             Y             Z
Electronic contribution:     -0.01652       0.01481      -0.13895
Nuclear contribution   :      0.01242      -0.05808       0.54208
                        -----------------------------------------
Total Dipole Moment    :     -0.00410      -0.04327       0.40314
                        -----------------------------------------
Magnitude (a.u.)       :      0.40547
Magnitude (Debye)      :      1.03063

VIBRATIONAL FREQUENCIES
-----------------------

Scaling factor for frequencies =  1.000000000 (already applied!)

   0:         0.00 cm**-1
   1:         0.00 cm**-1
   2:         0.00 cm**-1
   3:         0.00 cm**-1
   4:         0.00 cm**-1
   5:         0.00 cm**-1
   6:       177.96 cm**-1
   7:       186.17 cm**-1
   8:       192.19 cm**-1
   9:       210.78 cm**-1
  10:       222.65 cm**-1
  11:       248.83 cm**-1
  12:       352.79 cm**-1
  13:       364.72 cm**-1
  14:       456.16 cm**-1
  15:       578.62 cm**-1
  16:       672.34 cm**-1
  17:       866.75 cm**-1
  18:      1643.04 cm**-1
  19:      1645.59 cm**-1
  20:      1670.03 cm**-1
  21:      3558.01 cm**-1
  22:      3621.43 cm**-1
  23:      3631.08 cm**-1
  24:      3883.23 cm**-1
  25:      3888.66 cm**-1
  26:      3889.17 cm**-1

IR SPECTRUM
-----------

 Mode    freq (cm**-1)   T**2         TX         TY         TZ
-------------------------------------------------------------------
   6:       177.96   40.709786  ( -2.554540  -5.198353  -2.676049)
   7:       186.17   59.145545  ( -7.178273  -0.882158   2.615291)
   8:       192.19   38.740413  (  6.144432  -0.488285   0.864837)
   9:       210.78  146.888735  (  0.608060  -8.496950  -8.620953)
  10:       222.65    4.365925  ( -1.031894   1.655920   0.747697)
  11:       248.83   33.462817  (  1.389304  -5.457569   1.321964)
  12:       352.79   76.794358  ( -3.726153   7.899313  -0.714840)
  13:       364.72   56.652417  ( -7.338901   1.205416   1.157547)
  14:       456.16  123.006135  (  5.133381   8.550678  -4.851849)
  15:       578.62  160.440146  ( 10.861424   5.987735   2.572284)
  16:       672.34  292.635895  (  8.734440  -9.320254 -11.378854)
  17:       866.75    9.701856  ( -0.524571  -1.531346   2.661139)
  18:      1643.04   90.855519  (  7.529163   2.019581   5.485300)
  19:      1645.59   76.722726  ( -1.545673   7.053735  -4.957665)
  20:      1670.03   12.176828  ( -0.121194   1.708992  -3.039981)
  21:      3558.01   12.404147  (  3.318213  -1.178904   0.061618)
  22:      3621.43  568.637825  (  0.566835  23.831855  -0.599358)
  23:      3631.08  526.780667  (-22.945067   0.518570   0.188772)
  24:      3883.23   83.709636  ( -3.091983  -7.488959   4.250267)
  25:      3888.66   81.607403  (  3.008402  -6.973924   4.890940)
  26:      3889.17  105.358346  (  9.825013  -0.408768  -2.942851)

--------------------------
THERMOCHEMISTRY AT 298.15K
--------------------------

Temperature         ... 298.15 K
Pressure            ... 1.00 atm
Total Mass          ... 54.05 AMU

Throughout the following assumptions are being made:
  (1) The electronic state is orbitally nondegenerate
  (2) There are no thermally accessible electronically excited states
  (3) Hindered rotations indicated by low frequency modes are not
      treated as such but are treated as vibrations and this may
      cause some error
  (4) All equations used are the standard statistical mechanics
      equations for an ideal gas
  (5) All vibrations are strictly harmonic

freq.     177.96  E(vib)   ...       0.37
freq.     186.17  E(vib)   ...       0.37
freq.     192.19  E(vib)   ...       0.36
freq.     210.78  E(vib)   ...       0.34
freq.     222.65  E(vib)   ...       0.33
freq.     248.83  E(vib)   ...       0.31
freq.     352.79  E(vib)   ...       0.22
freq.     364.72  E(vib)   ...       0.22
freq.     456.16  E(vib)   ...       0.16
freq.     578.62  E(vib)   ...       0.11
freq.     672.34  E(vib)   ...       0.08
freq.     866.75  E(vib)   ...       0.04
freq.    1643.04  E(vib)   ...       0.00
freq.    1645.59  E(vib)   ...       0.00
freq.    1670.03  E(vib)   ...       0.00
freq.    3558.01  E(vib)   ...       0.00
freq.    3621.43  E(vib)   ...       0.00
freq.    3631.08  E(vib)   ...       0.00
freq.    3883.23  E(vib)   ...       0.00
freq.    3888.66  E(vib)   ...       0.00
freq.    3889.17  E(vib)   ...       0.00

------------
INNER ENERGY
------------

The inner energy is: U= E(el) + E(ZPE) + E(vib) + E(rot) + E(trans)
    E(el)   - is the total energy from the electronic structure calculation
              = E(kin-el) + E(nuc-el) + E(el-el) + E(nuc-nuc)
    E(ZPE)  - the the zero temperature vibrational energy from the frequency calculation
    E(vib)  - the the finite temperature correction to E(ZPE) due to population
              of excited vibrational states
    E(rot)  - is the rotational thermal energy
    E(trans)- is the translational thermal energy

Summary of contributions to the inner energy U:
Electronic energy                ...   -229.27029373 Eh
Zero point energy                ...      0.07281068 Eh      45.69 kcal/mol
Thermal vibrational correction   ...      0.00463785 Eh       2.91 kcal/mol
Thermal rotational correction    ...      0.00141627 Eh       0.89 kcal/mol
Thermal translational correction ...      0.00141627 Eh       0.89 kcal/mol
-----------------------------------------------------------------------
Total thermal energy                   -229.19001266 Eh

Summary of corrections to the electronic energy:
(perhaps to be used in another calculation)
Total thermal correction                  0.00747039 Eh       4.69 kcal/mol
Non-thermal (ZPE) correction              0.07281068 Eh      45.69 kcal/mol
-----------------------------------------------------------------------
Total correction                          0.08028107 Eh      50.38 kcal/mol

--------
ENTHALPY
--------

The enthalpy is H = U + kB*T
                kB is Boltzmann's constant
Total free energy                 ...   -229.19001266 Eh
Thermal Enthalpy correction       ...      0.00094421 Eh       0.59 kcal/mol
-----------------------------------------------------------------------
Total Enthalpy                    ...   -229.18906845 Eh

Note: Only C1 symmetry has been detected, increase convergence thresholds
      if your molecule has a higher symmetry. Symmetry factor of 1.0 is
      used for the rotational entropy correction.

Note: Rotational entropy computed according to Herzberg
Infrared and Raman Spectra, Chapter V,1, Van Nostrand Reinhold, 1945
Point Group:  C1, Symmetry Number:   1
Rotational constants in cm-1:     0.231073     0.228050     0.116885

Vibrational entropy computed according to the QRRHO of S. Grimme
Chem.Eur.J. 2012 18 9955

-------
ENTROPY
-------

The entropy contributions are T*S = T*(S(el)+S(vib)+S(rot)+S(trans))
     S(el)   - electronic entropy
     S(vib)  - vibrational entropy
     S(rot)  - rotational entropy
     S(trans)- translational entropy
The entropies will be listed as mutliplied by the temperature to get
units of energy

Electronic entropy                ...      0.00000000 Eh      0.00 kcal/mol
Vibrational entropy               ...      0.00788161 Eh      4.95 kcal/mol
Rotational entropy                ...      0.01191364 Eh      7.48 kcal/mol
Translational entropy             ...      0.01799974 Eh     11.29 kcal/mol
-----------------------------------------------------------------------
Final entropy term                ...      0.03779499 Eh     23.72 kcal/mol

In case the symmetry of your molecule has not been determined correctly
or in case you have a reason to use a different symmetry number we print
out the resulting rotational entropy values for sn=1,12 :
 --------------------------------------------------------
|  sn= 1 | S(rot)=       0.01191364 Eh      7.48 kcal/mol|
|  sn= 2 | S(rot)=       0.01125919 Eh      7.07 kcal/mol|
|  sn= 3 | S(rot)=       0.01087635 Eh      6.83 kcal/mol|
|  sn= 4 | S(rot)=       0.01060473 Eh      6.65 kcal/mol|
|  sn= 5 | S(rot)=       0.01039404 Eh      6.52 kcal/mol|
|  sn= 6 | S(rot)=       0.01022190 Eh      6.41 kcal/mol|
|  sn= 7 | S(rot)=       0.01007635 Eh      6.32 kcal/mol|
|  sn= 8 | S(rot)=       0.00995027 Eh      6.24 kcal/mol|
|  sn= 9 | S(rot)=       0.00983906 Eh      6.17 kcal/mol|
|  sn=10 | S(rot)=       0.00973959 Eh      6.11 kcal/mol|
|  sn=11 | S(rot)=       0.00964960 Eh      6.06 kcal/mol|
|  sn=12 | S(rot)=       0.00956744 Eh      6.00 kcal/mol|
 --------------------------------------------------------

-------------------
GIBBS FREE ENERGY
-------------------

The Gibbs free energy is G = H - T*S

Total enthalpy                    ...   -229.18906845 Eh
Total entropy correction          ...     -0.03779499 Eh    -23.72 kcal/mol
-----------------------------------------------------------------------
Final Gibbs free energy         ...   -229.22686344 Eh

For completeness - the Gibbs free energy minus the electronic energy
G-E(el)                           ...      0.04343029 Eh     27.25 kcal/mol

                             ****ORCA TERMINATED NORMALLY****
TOTAL RUN TIME: 0 days 0 hours 17 minutes 17 seconds 70 msec
