                         Program Version 4.2.0 -  RELEASE  -
|  1> #
|  2> # 04_H2O_4 b2-plyp/aug-cc-pvt(+d)z
|  3> #
|  4> ! rijk ri-b2plyp d3bj aug-cc-pvt(+d)z def2/jk def2-tzvp/c grid4 nofinalgrid opt xyzfile numfreq
|  5>
|  6> *xyz 0 1
|  7> O	1.372659		-1.372658	0.015734
|  8> H	0.406261		-1.511316	-0.008945
|  9> H	1.683553		-1.872433	0.772059
| 10> O	-1.372658		-1.372658	-0.015734
| 11> H	-1.511316		-0.406261	0.008945
| 12> H	-1.872433		-1.683553	-0.772059
| 13> O	-1.372658		1.372659	0.015734
| 14> H	-0.406261		1.511317	-0.008945
| 15> H	-1.683553		1.872433	0.772059
| 16> O	1.372659		1.372659	-0.015734
| 17> H	1.511317		0.406261	0.008945
| 18> H	1.872433		1.683553	-0.772059
| 19> *
| 20>
| 21> %maxcore 5000
| 22>
| 23> %pal
| 24> nprocs 24
| 25> end
| 26>
| 27>
| 28>                          ****END OF INPUT****
 Total Charge           Charge          ....    0
 Multiplicity           Mult            ....    1
 Number of Electrons    NEL             ....   40
Dispersion correction            ... done
MP2 TOTAL ENERGY:     -305.701652434 Eh
Dispersion correction           -0.003339876
FINAL SINGLE POINT ENERGY      -305.704992309677
Dispersion correction            ... done
MP2 TOTAL ENERGY:     -305.701739688 Eh
Dispersion correction           -0.003338447
FINAL SINGLE POINT ENERGY      -305.705078134816
FINAL SINGLE POINT ENERGY      -305.705103783045
Dispersion correction            ... done
MP2 TOTAL ENERGY:     -305.701748803 Eh
Dispersion correction           -0.003363769
FINAL SINGLE POINT ENERGY      -305.705112572583
                    ***********************HURRAY********************

CARTESIAN COORDINATES (ANGSTROEM)
---------------------------------
  O      1.365465   -1.364682    0.016617
  H      0.393584   -1.501971   -0.008544
  H      1.683124   -1.863463    0.772825
  O     -1.364681   -1.365462   -0.016617
  H     -1.501970   -0.393581    0.008544
  H     -1.863462   -1.683121   -0.772825
  O     -1.365463    1.364683    0.016616
  H     -0.393581    1.501971   -0.008544
  H     -1.683120    1.863464    0.772825
  O      1.364678    1.365462   -0.016616
  H      1.501969    0.393581    0.008545
  H      1.863459    1.683121   -0.772824

 Multiplicity           Mult            ....    1
 Number of Electrons    NEL             ....   40
 Basis Dimension        Dim             ....  368

ORBITAL ENERGIES
----------------

  NO   OCC          E(Eh)            E(eV)
   0   2.0000     -19.727947      -536.8247
   1   2.0000     -19.727940      -536.8245
   2   2.0000     -19.727940      -536.8245
   3   2.0000     -19.727932      -536.8243
   4   2.0000      -1.166023       -31.7291
   5   2.0000      -1.151259       -31.3273
   6   2.0000      -1.151259       -31.3273
   7   2.0000      -1.136845       -30.9351
   8   2.0000      -0.625625       -17.0241
   9   2.0000      -0.612283       -16.6611
  10   2.0000      -0.612283       -16.6611
  11   2.0000      -0.603230       -16.4147
  12   2.0000      -0.513338       -13.9686
  13   2.0000      -0.477269       -12.9872
  14   2.0000      -0.477269       -12.9872
  15   2.0000      -0.442071       -12.0294
  16   2.0000      -0.399979       -10.8840
  17   2.0000      -0.397738       -10.8230
  18   2.0000      -0.397738       -10.8230
  19   2.0000      -0.397272       -10.8103
  20   0.0000       0.001133         0.0308
  21   0.0000       0.021518         0.5855
  22   0.0000       0.021518         0.5855
  23   0.0000       0.029048         0.7904
  24   0.0000       0.052631         1.4322

Dispersion correction            ... done

MULLIKEN ATOMIC CHARGES
-----------------------
   0 O :   -0.426666
   1 H :    0.281162
   2 H :    0.145506
   3 O :   -0.426669
   4 H :    0.281162
   5 H :    0.145506
   6 O :   -0.426667
   7 H :    0.281160
   8 H :    0.145506
   9 O :   -0.426665
  10 H :    0.281161
  11 H :    0.145505
Sum of atomic charges:    0.0000000

LOEWDIN ATOMIC CHARGES
----------------------
   0 O :    1.114862
   1 H :   -0.659681
   2 H :   -0.455180
   3 O :    1.114862
   4 H :   -0.659682
   5 H :   -0.455180
   6 O :    1.114862
   7 H :   -0.659684
   8 H :   -0.455180
   9 O :    1.114863
  10 H :   -0.659682
  11 H :   -0.455180

  Mayer bond orders larger than 0.100000
B(  0-O ,  1-H ) :   0.8448 B(  0-O ,  2-H ) :   1.0462 B(  3-O ,  4-H ) :   0.8448
B(  3-O ,  5-H ) :   1.0462 B(  6-O ,  7-H ) :   0.8448 B(  6-O ,  8-H ) :   1.0462
B(  9-O , 10-H ) :   0.8448 B(  9-O , 11-H ) :   1.0462

MP2 TOTAL ENERGY:     -305.701748511 Eh
Dispersion correction           -0.003364158
FINAL SINGLE POINT ENERGY      -305.705112669678

DIPOLE MOMENT
-------------
                                X             Y             Z
Electronic contribution:      0.00000      -0.00000       0.00000
Nuclear contribution   :      0.00000      -0.00000      -0.00000
                        -----------------------------------------
Total Dipole Moment    :      0.00000      -0.00000      -0.00000
                        -----------------------------------------
Magnitude (a.u.)       :      0.00000
Magnitude (Debye)      :      0.00001

VIBRATIONAL FREQUENCIES
-----------------------

Scaling factor for frequencies =  1.000000000 (already applied!)

   0:         0.00 cm**-1
   1:         0.00 cm**-1
   2:         0.00 cm**-1
   3:         0.00 cm**-1
   4:         0.00 cm**-1
   5:         0.00 cm**-1
   6:        56.59 cm**-1
   7:        84.01 cm**-1
   8:       212.90 cm**-1
   9:       226.38 cm**-1
  10:       245.17 cm**-1
  11:       245.34 cm**-1
  12:       265.18 cm**-1
  13:       269.55 cm**-1
  14:       269.61 cm**-1
  15:       304.76 cm**-1
  16:       422.39 cm**-1
  17:       451.77 cm**-1
  18:       465.63 cm**-1
  19:       465.68 cm**-1
  20:       758.72 cm**-1
  21:       829.94 cm**-1
  22:       829.94 cm**-1
  23:       996.05 cm**-1
  24:      1649.09 cm**-1
  25:      1663.86 cm**-1
  26:      1663.86 cm**-1
  27:      1692.67 cm**-1
  28:      3362.97 cm**-1
  29:      3461.39 cm**-1
  30:      3461.40 cm**-1
  31:      3503.62 cm**-1
  32:      3881.74 cm**-1
  33:      3882.57 cm**-1
  34:      3882.58 cm**-1
  35:      3883.30 cm**-1

IR SPECTRUM
-----------

 Mode    freq (cm**-1)   T**2         TX         TY         TZ
-------------------------------------------------------------------
   6:        56.59    0.000145  (  0.009847   0.003721   0.005887)
   7:        84.01    1.713293  ( -0.003869   0.004623   1.308914)
   8:       212.90    0.000213  ( -0.006660  -0.001698  -0.012892)
   9:       226.38   64.135195  (  0.000411  -0.024388  -8.008408)
  10:       245.17    4.572636  (  1.956105  -0.863871  -0.003875)
  11:       245.34    4.238308  (  0.845818   1.876939  -0.000950)
  12:       265.18    2.643425  (  0.160081  -0.003402   1.617958)
  13:       269.55  235.413412  ( -7.840658  13.188536  -0.002089)
  14:       269.61  235.402767  ( 13.183441   7.848520  -0.019735)
  15:       304.76    0.000329  ( -0.004817  -0.017066   0.003822)
  16:       422.39    0.000178  ( -0.004054  -0.009783   0.008114)
  17:       451.77   17.161408  ( -0.004676   0.006076   4.142626)
  18:       465.63   43.623393  (  6.602971  -0.155452   0.001889)
  19:       465.68   43.649054  ( -0.162763  -6.604736   0.005451)
  20:       758.72  172.564558  ( -0.005582  -0.000987 -13.136382)
  21:       829.94  173.090876  (-13.136275   0.727412   0.004662)
  22:       829.94  173.107120  ( -0.726646 -13.136937   0.001473)
  23:       996.05    0.000003  (  0.001183  -0.001020  -0.000862)
  24:      1649.09   85.613951  ( -0.001104  -0.001553  -9.252781)
  25:      1663.86   51.758931  ( -4.267904   5.791712  -0.000421)
  26:      1663.86   51.755404  ( -5.791369  -4.267955   0.002725)
  27:      1692.67    0.000002  ( -0.000734  -0.000434  -0.001251)
  28:      3362.97    0.000002  (  0.001333   0.000565  -0.000011)
  29:      3461.39  1467.699941  ( 33.302509  18.937868   0.000055)
  30:      3461.40  1467.707973  ( 18.937985 -33.302563  -0.000067)
  31:      3503.62   28.140085  ( -0.000091   0.001221  -5.304723)
  32:      3881.74   97.972988  (  0.068005  -0.049119  -9.897775)
  33:      3882.57  101.164805  ( -9.068844   4.349051  -0.081399)
  34:      3882.58  101.166550  ( -4.348688  -9.069468   0.014310)
  35:      3883.30    0.024112  (  0.147018   0.040703  -0.028992)

--------------------------
THERMOCHEMISTRY AT 298.15K
--------------------------

Temperature         ... 298.15 K
Pressure            ... 1.00 atm
Total Mass          ... 72.06 AMU

Throughout the following assumptions are being made:
  (1) The electronic state is orbitally nondegenerate
  (2) There are no thermally accessible electronically excited states
  (3) Hindered rotations indicated by low frequency modes are not
      treated as such but are treated as vibrations and this may
      cause some error
  (4) All equations used are the standard statistical mechanics
      equations for an ideal gas
  (5) All vibrations are strictly harmonic

freq.      56.59  E(vib)   ...       0.52
freq.      84.01  E(vib)   ...       0.48
freq.     212.90  E(vib)   ...       0.34
freq.     226.38  E(vib)   ...       0.33
freq.     245.17  E(vib)   ...       0.31
freq.     245.34  E(vib)   ...       0.31
freq.     265.18  E(vib)   ...       0.29
freq.     269.55  E(vib)   ...       0.29
freq.     269.61  E(vib)   ...       0.29
freq.     304.76  E(vib)   ...       0.26
freq.     422.39  E(vib)   ...       0.18
freq.     451.77  E(vib)   ...       0.16
freq.     465.63  E(vib)   ...       0.16
freq.     465.68  E(vib)   ...       0.16
freq.     758.72  E(vib)   ...       0.06
freq.     829.94  E(vib)   ...       0.04
freq.     829.94  E(vib)   ...       0.04
freq.     996.05  E(vib)   ...       0.02
freq.    1649.09  E(vib)   ...       0.00
freq.    1663.86  E(vib)   ...       0.00
freq.    1663.86  E(vib)   ...       0.00
freq.    1692.67  E(vib)   ...       0.00
freq.    3362.97  E(vib)   ...       0.00
freq.    3461.39  E(vib)   ...       0.00
freq.    3461.40  E(vib)   ...       0.00
freq.    3503.62  E(vib)   ...       0.00
freq.    3881.74  E(vib)   ...       0.00
freq.    3882.57  E(vib)   ...       0.00
freq.    3882.58  E(vib)   ...       0.00
freq.    3883.30  E(vib)   ...       0.00

------------
INNER ENERGY
------------

The inner energy is: U= E(el) + E(ZPE) + E(vib) + E(rot) + E(trans)
    E(el)   - is the total energy from the electronic structure calculation
              = E(kin-el) + E(nuc-el) + E(el-el) + E(nuc-nuc)
    E(ZPE)  - the the zero temperature vibrational energy from the frequency calculation
    E(vib)  - the the finite temperature correction to E(ZPE) due to population
              of excited vibrational states
    E(rot)  - is the rotational thermal energy
    E(trans)- is the translational thermal energy

Summary of contributions to the inner energy U:
Electronic energy                ...   -305.70511272 Eh
Zero point energy                ...      0.09884661 Eh      62.03 kcal/mol
Thermal vibrational correction   ...      0.00676457 Eh       4.24 kcal/mol
Thermal rotational correction    ...      0.00141627 Eh       0.89 kcal/mol
Thermal translational correction ...      0.00141627 Eh       0.89 kcal/mol
-----------------------------------------------------------------------
Total thermal energy                   -305.59666900 Eh

Summary of corrections to the electronic energy:
(perhaps to be used in another calculation)
Total thermal correction                  0.00959711 Eh       6.02 kcal/mol
Non-thermal (ZPE) correction              0.09884661 Eh      62.03 kcal/mol
-----------------------------------------------------------------------
Total correction                          0.10844372 Eh      68.05 kcal/mol

--------
ENTHALPY
--------

The enthalpy is H = U + kB*T
                kB is Boltzmann's constant
Total free energy                 ...   -305.59666900 Eh
Thermal Enthalpy correction       ...      0.00094421 Eh       0.59 kcal/mol
-----------------------------------------------------------------------
Total Enthalpy                    ...   -305.59572479 Eh

Note: Only C1 symmetry has been detected, increase convergence thresholds
      if your molecule has a higher symmetry. Symmetry factor of 1.0 is
      used for the rotational entropy correction.

Note: Rotational entropy computed according to Herzberg
Infrared and Raman Spectra, Chapter V,1, Van Nostrand Reinhold, 1945
Point Group:  C1, Symmetry Number:   1
Rotational constants in cm-1:     0.121061     0.121060     0.061604

Vibrational entropy computed according to the QRRHO of S. Grimme
Chem.Eur.J. 2012 18 9955

-------
ENTROPY
-------

The entropy contributions are T*S = T*(S(el)+S(vib)+S(rot)+S(trans))
     S(el)   - electronic entropy
     S(vib)  - vibrational entropy
     S(rot)  - rotational entropy
     S(trans)- translational entropy
The entropies will be listed as mutliplied by the temperature to get
units of energy

Electronic entropy                ...      0.00000000 Eh      0.00 kcal/mol
Vibrational entropy               ...      0.01160840 Eh      7.28 kcal/mol
Rotational entropy                ...      0.01282015 Eh      8.04 kcal/mol
Translational entropy             ...      0.01840717 Eh     11.55 kcal/mol
-----------------------------------------------------------------------
Final entropy term                ...      0.04283572 Eh     26.88 kcal/mol

In case the symmetry of your molecule has not been determined correctly
or in case you have a reason to use a different symmetry number we print
out the resulting rotational entropy values for sn=1,12 :
 --------------------------------------------------------
|  sn= 1 | S(rot)=       0.01282015 Eh      8.04 kcal/mol|
|  sn= 2 | S(rot)=       0.01216569 Eh      7.63 kcal/mol|
|  sn= 3 | S(rot)=       0.01178286 Eh      7.39 kcal/mol|
|  sn= 4 | S(rot)=       0.01151123 Eh      7.22 kcal/mol|
|  sn= 5 | S(rot)=       0.01130055 Eh      7.09 kcal/mol|
|  sn= 6 | S(rot)=       0.01112840 Eh      6.98 kcal/mol|
|  sn= 7 | S(rot)=       0.01098285 Eh      6.89 kcal/mol|
|  sn= 8 | S(rot)=       0.01085678 Eh      6.81 kcal/mol|
|  sn= 9 | S(rot)=       0.01074557 Eh      6.74 kcal/mol|
|  sn=10 | S(rot)=       0.01064609 Eh      6.68 kcal/mol|
|  sn=11 | S(rot)=       0.01055610 Eh      6.62 kcal/mol|
|  sn=12 | S(rot)=       0.01047394 Eh      6.57 kcal/mol|
 --------------------------------------------------------

-------------------
GIBBS FREE ENERGY
-------------------

The Gibbs free energy is G = H - T*S

Total enthalpy                    ...   -305.59572479 Eh
Total entropy correction          ...     -0.04283572 Eh    -26.88 kcal/mol
-----------------------------------------------------------------------
Final Gibbs free energy         ...   -305.63856051 Eh

For completeness - the Gibbs free energy minus the electronic energy
G-E(el)                           ...      0.06655221 Eh     41.76 kcal/mol

                             ****ORCA TERMINATED NORMALLY****
TOTAL RUN TIME: 0 days 0 hours 39 minutes 55 seconds 194 msec
