                         Program Version 4.2.0 -  RELEASE  -
|  1> #
|  2> # 05_H2O_5 b2-plyp/aug-cc-pvt(+d)z
|  3> #
|  4> ! rijk ri-b2plyp d3bj aug-cc-pvt(+d)z def2/jk def2-tzvp/c grid4 nofinalgrid opt xyzfile numfreq
|  5>
|  6> *xyz 0 1
|  7> O	2.312927	0.150318	0.177415
|  8> O	0.864769	-2.137443	-0.15942
|  9> O	-1.781315	-1.498466	0.059758
| 10> O	-1.961951	1.234812	-0.062774
| 11> O	0.577396	2.241432	-0.075822
| 12> H	1.836849	-0.694236	0.04925
| 13> H	-0.089971	-1.943593	-0.076678
| 14> H	-1.915322	-0.530797	0.048103
| 15> H	-1.066728	1.628166	-0.074484
| 16> H	1.229463	1.522335	0.042111
| 17> H	2.825562	0.034681	0.978576
| 18> H	0.953988	-2.623745	-0.980296
| 19> H	-2.260123	-1.814802	0.826889
| 20> H	-2.472247	1.784461	0.533098
| 21> H	0.863928	2.71231	-0.859811
| 22> *
| 23>
| 24> %maxcore 5000
| 25>
| 26> %pal
| 27> nprocs 24
| 28> end
| 29>
| 30>
| 31>                          ****END OF INPUT****
 Total Charge           Charge          ....    0
 Multiplicity           Mult            ....    1
 Number of Electrons    NEL             ....   50
Dispersion correction            ... done
MP2 TOTAL ENERGY:     -382.130081985 Eh
Dispersion correction           -0.004179815
FINAL SINGLE POINT ENERGY      -382.134261800640
Dispersion correction            ... done
MP2 TOTAL ENERGY:     -382.130209499 Eh
Dispersion correction           -0.004184248
FINAL SINGLE POINT ENERGY      -382.134393746550
FINAL SINGLE POINT ENERGY      -382.134434519060
Dispersion correction            ... done
MP2 TOTAL ENERGY:     -382.130219842 Eh
Dispersion correction           -0.004221694
FINAL SINGLE POINT ENERGY      -382.134441536008
                    ***********************HURRAY********************

CARTESIAN COORDINATES (ANGSTROEM)
---------------------------------
  O      2.293428    0.150721    0.194202
  O      0.860828   -2.121109   -0.168886
  O     -1.766854   -1.488605    0.058724
  O     -1.947571    1.226352   -0.049610
  O      0.573805    2.226751   -0.094433
  H      1.815634   -0.698113    0.056350
  H     -0.099829   -1.928182   -0.083497
  H     -1.899828   -0.515009    0.050952
  H     -1.047540    1.622930   -0.072535
  H      1.228804    1.504521    0.035846
  H      2.796875    0.041276    1.003962
  H      0.958581   -2.602983   -0.993287
  H     -2.243649   -1.816027    0.824508
  H     -2.459669    1.772456    0.550543
  H      0.854210    2.690454   -0.886925

 Multiplicity           Mult            ....    1
 Number of Electrons    NEL             ....   50
 Basis Dimension        Dim             ....  460

ORBITAL ENERGIES
----------------

  NO   OCC          E(Eh)            E(eV)
   0   2.0000     -19.726302      -536.7800
   1   2.0000     -19.725026      -536.7453
   2   2.0000     -19.724866      -536.7409
   3   2.0000     -19.724617      -536.7341
   4   2.0000     -19.724289      -536.7252
   5   2.0000      -1.163337       -31.6560
   6   2.0000      -1.153632       -31.3919
   7   2.0000      -1.152899       -31.3720
   8   2.0000      -1.136831       -30.9347
   9   2.0000      -1.135956       -30.9109
  10   2.0000      -0.617425       -16.8010
  11   2.0000      -0.613006       -16.6807
  12   2.0000      -0.610895       -16.6233
  13   2.0000      -0.608570       -16.5600
  14   2.0000      -0.607065       -16.5191
  15   2.0000      -0.509449       -13.8628
  16   2.0000      -0.506113       -13.7720
  17   2.0000      -0.464285       -12.6338
  18   2.0000      -0.461892       -12.5687
  19   2.0000      -0.435447       -11.8491
  20   2.0000      -0.400544       -10.8994
  21   2.0000      -0.396220       -10.7817
  22   2.0000      -0.395792       -10.7700
  23   2.0000      -0.394925       -10.7464
  24   2.0000      -0.391040       -10.6407
  25   0.0000       0.000110         0.0030
  26   0.0000       0.016645         0.4529
  27   0.0000       0.018961         0.5160
  28   0.0000       0.028598         0.7782
  29   0.0000       0.036642         0.9971

Dispersion correction            ... done

MULLIKEN ATOMIC CHARGES
-----------------------
   0 O :   -0.418165
   1 O :   -0.413245
   2 O :   -0.406292
   3 O :   -0.426898
   4 O :   -0.410561
   5 H :    0.267305
   6 H :    0.270091
   7 H :    0.256336
   8 H :    0.273613
   9 H :    0.267870
  10 H :    0.147457
  11 H :    0.147864
  12 H :    0.150786
  13 H :    0.146719
  14 H :    0.147118
Sum of atomic charges:   -0.0000000

LOEWDIN ATOMIC CHARGES
----------------------
   0 O :    1.122332
   1 O :    1.122532
   2 O :    1.123751
   3 O :    1.121078
   4 O :    1.121432
   5 H :   -0.671742
   6 H :   -0.671142
   7 H :   -0.665996
   8 H :   -0.672146
   9 H :   -0.671931
  10 H :   -0.450994
  11 H :   -0.449913
  12 H :   -0.452013
  13 H :   -0.454918
  14 H :   -0.450332

  Mayer bond orders larger than 0.100000
B(  0-O ,  5-H ) :   0.8578 B(  0-O ,  9-H ) :   0.1055 B(  0-O , 10-H ) :   1.0441
B(  1-O ,  5-H ) :   0.1068 B(  1-O ,  6-H ) :   0.8567 B(  1-O , 11-H ) :   1.0422
B(  2-O ,  6-H ) :   0.1024 B(  2-O ,  7-H ) :   0.8696 B(  2-O , 12-H ) :   1.0403
B(  3-O ,  7-H ) :   0.1075 B(  3-O ,  8-H ) :   0.8530 B(  3-O , 13-H ) :   1.0502
B(  4-O ,  8-H ) :   0.1056 B(  4-O ,  9-H ) :   0.8584 B(  4-O , 14-H ) :   1.0439

MP2 TOTAL ENERGY:     -382.130219796 Eh
Dispersion correction           -0.004221890
FINAL SINGLE POINT ENERGY      -382.134441686079

DIPOLE MOMENT
-------------
                                X             Y             Z
Electronic contribution:      0.02785      -0.03277      -0.13756
Nuclear contribution   :     -0.10295       0.06917       0.50435
                        -----------------------------------------
Total Dipole Moment    :     -0.07510       0.03640       0.36679
                        -----------------------------------------
Magnitude (a.u.)       :      0.37616
Magnitude (Debye)      :      0.95613

VIBRATIONAL FREQUENCIES
-----------------------

Scaling factor for frequencies =  1.000000000 (already applied!)

   0:         0.00 cm**-1
   1:         0.00 cm**-1
   2:         0.00 cm**-1
   3:         0.00 cm**-1
   4:         0.00 cm**-1
   5:         0.00 cm**-1
   6:        24.30 cm**-1
   7:        44.41 cm**-1
   8:        64.35 cm**-1
   9:        67.37 cm**-1
  10:       184.90 cm**-1
  11:       201.73 cm**-1
  12:       222.62 cm**-1
  13:       242.32 cm**-1
  14:       243.09 cm**-1
  15:       257.26 cm**-1
  16:       286.17 cm**-1
  17:       305.84 cm**-1
  18:       307.76 cm**-1
  19:       318.20 cm**-1
  20:       422.71 cm**-1
  21:       442.33 cm**-1
  22:       463.32 cm**-1
  23:       476.43 cm**-1
  24:       530.30 cm**-1
  25:       722.51 cm**-1
  26:       796.30 cm**-1
  27:       865.60 cm**-1
  28:       887.39 cm**-1
  29:       986.96 cm**-1
  30:      1652.19 cm**-1
  31:      1661.91 cm**-1
  32:      1673.27 cm**-1
  33:      1690.75 cm**-1
  34:      1699.86 cm**-1
  35:      3317.98 cm**-1
  36:      3403.65 cm**-1
  37:      3413.64 cm**-1
  38:      3463.07 cm**-1
  39:      3471.08 cm**-1
  40:      3876.33 cm**-1
  41:      3881.15 cm**-1
  42:      3882.15 cm**-1
  43:      3883.95 cm**-1
  44:      3886.54 cm**-1

IR SPECTRUM
-----------

 Mode    freq (cm**-1)   T**2         TX         TY         TZ
-------------------------------------------------------------------
   6:        24.30    2.192719  ( -0.141010  -1.468910   0.123035)
   7:        44.41    0.122789  (  0.177923   0.041069  -0.299074)
   8:        64.35    0.068288  ( -0.199952  -0.100090  -0.135238)
   9:        67.37    1.439227  ( -0.064485   0.096198  -1.194075)
  10:       184.90    1.289219  ( -0.711173   0.399697  -0.789743)
  11:       201.73   24.218142  ( -4.562466  -0.565211  -1.755728)
  12:       222.62  110.441342  (  5.267366  -2.020823   8.866367)
  13:       242.32   26.032186  (  0.909151   4.966857   0.732092)
  14:       243.09   32.115305  (  5.276557  -0.543338   1.994500)
  15:       257.26  131.027000  ( 11.400928  -0.496445  -0.894079)
  16:       286.17  225.934586  ( -3.515963 -14.611373  -0.283469)
  17:       305.84   22.739874  ( -1.582140   4.415246   0.861575)
  18:       307.76    9.864024  ( -2.027004   2.368961  -0.378553)
  19:       318.20   68.280558  ( -8.235316  -0.378106   0.563169)
  20:       422.71   58.473049  ( -6.783500   3.447650   0.755573)
  21:       442.33   10.091274  (  0.393431   3.144642  -0.218431)
  22:       463.32   15.218410  (  2.032871  -3.327835   0.106567)
  23:       476.43   20.763986  (  1.985129   0.104984   4.100272)
  24:       530.30   62.251684  (  2.317163   5.221375  -5.442397)
  25:       722.51   24.070237  ( -3.726120  -0.516889  -3.149459)
  26:       796.30  158.472402  (  1.048459  -0.002171 -12.544845)
  27:       865.60  148.820434  (-11.225471  -2.565308  -4.028454)
  28:       887.39  148.479439  (  1.006039 -11.925982   2.288726)
  29:       986.96   10.353185  (  2.697582  -0.954868  -1.471212)
  30:      1652.19   79.413991  ( -0.751259   0.674618   8.854066)
  31:      1661.91   19.386429  (  3.545432  -2.477725   0.822930)
  32:      1673.27   70.678684  (  0.612369   7.876545   2.874670)
  33:      1690.75   50.266267  (  6.990290  -0.308167  -1.143302)
  34:      1699.86    3.232315  ( -1.005314  -1.030940   1.076486)
  35:      3317.98   18.057880  ( -0.117189   4.245991   0.125318)
  36:      3403.65  2228.842267  ( 47.016284   4.268148  -0.306892)
  37:      3413.64  2068.687778  ( -4.561796  45.252507   0.297333)
  38:      3463.07   87.775601  (  0.168451   0.624613  -9.346501)
  39:      3471.08   69.769928  (  0.325837   7.808988  -2.946771)
  40:      3876.33   81.720513  ( -5.205666   3.910071   6.271595)
  41:      3881.15   80.123583  ( -1.142308   6.500651  -6.046507)
  42:      3882.15   65.372140  (  2.205656   6.638714  -4.053973)
  43:      3883.95   71.415523  (  5.571660   3.079960   5.557516)
  44:      3886.54   72.779684  (  7.351967  -1.669475  -3.992633)

--------------------------
THERMOCHEMISTRY AT 298.15K
--------------------------

Temperature         ... 298.15 K
Pressure            ... 1.00 atm
Total Mass          ... 90.07 AMU

Throughout the following assumptions are being made:
  (1) The electronic state is orbitally nondegenerate
  (2) There are no thermally accessible electronically excited states
  (3) Hindered rotations indicated by low frequency modes are not
      treated as such but are treated as vibrations and this may
      cause some error
  (4) All equations used are the standard statistical mechanics
      equations for an ideal gas
  (5) All vibrations are strictly harmonic

freq.      24.30  E(vib)   ...       0.56
freq.      44.41  E(vib)   ...       0.53
freq.      64.35  E(vib)   ...       0.51
freq.      67.37  E(vib)   ...       0.50
freq.     184.90  E(vib)   ...       0.37
freq.     201.73  E(vib)   ...       0.35
freq.     222.62  E(vib)   ...       0.33
freq.     242.32  E(vib)   ...       0.31
freq.     243.09  E(vib)   ...       0.31
freq.     257.26  E(vib)   ...       0.30
freq.     286.17  E(vib)   ...       0.27
freq.     305.84  E(vib)   ...       0.26
freq.     307.76  E(vib)   ...       0.26
freq.     318.20  E(vib)   ...       0.25
freq.     422.71  E(vib)   ...       0.18
freq.     442.33  E(vib)   ...       0.17
freq.     463.32  E(vib)   ...       0.16
freq.     476.43  E(vib)   ...       0.15
freq.     530.30  E(vib)   ...       0.13
freq.     722.51  E(vib)   ...       0.07
freq.     796.30  E(vib)   ...       0.05
freq.     865.60  E(vib)   ...       0.04
freq.     887.39  E(vib)   ...       0.04
freq.     986.96  E(vib)   ...       0.02
freq.    1652.19  E(vib)   ...       0.00
freq.    1661.91  E(vib)   ...       0.00
freq.    1673.27  E(vib)   ...       0.00
freq.    1690.75  E(vib)   ...       0.00
freq.    1699.86  E(vib)   ...       0.00
freq.    3317.98  E(vib)   ...       0.00
freq.    3403.65  E(vib)   ...       0.00
freq.    3413.64  E(vib)   ...       0.00
freq.    3463.07  E(vib)   ...       0.00
freq.    3471.08  E(vib)   ...       0.00
freq.    3876.33  E(vib)   ...       0.00
freq.    3881.15  E(vib)   ...       0.00
freq.    3882.15  E(vib)   ...       0.00
freq.    3883.95  E(vib)   ...       0.00
freq.    3886.54  E(vib)   ...       0.00

------------
INNER ENERGY
------------

The inner energy is: U= E(el) + E(ZPE) + E(vib) + E(rot) + E(trans)
    E(el)   - is the total energy from the electronic structure calculation
              = E(kin-el) + E(nuc-el) + E(el-el) + E(nuc-nuc)
    E(ZPE)  - the the zero temperature vibrational energy from the frequency calculation
    E(vib)  - the the finite temperature correction to E(ZPE) due to population
              of excited vibrational states
    E(rot)  - is the rotational thermal energy
    E(trans)- is the translational thermal energy

Summary of contributions to the inner energy U:
Electronic energy                ...   -382.13444168 Eh
Zero point energy                ...      0.12352612 Eh      77.51 kcal/mol
Thermal vibrational correction   ...      0.00974686 Eh       6.12 kcal/mol
Thermal rotational correction    ...      0.00141627 Eh       0.89 kcal/mol
Thermal translational correction ...      0.00141627 Eh       0.89 kcal/mol
-----------------------------------------------------------------------
Total thermal energy                   -381.99833615 Eh

Summary of corrections to the electronic energy:
(perhaps to be used in another calculation)
Total thermal correction                  0.01257941 Eh       7.89 kcal/mol
Non-thermal (ZPE) correction              0.12352612 Eh      77.51 kcal/mol
-----------------------------------------------------------------------
Total correction                          0.13610553 Eh      85.41 kcal/mol

--------
ENTHALPY
--------

The enthalpy is H = U + kB*T
                kB is Boltzmann's constant
Total free energy                 ...   -381.99833615 Eh
Thermal Enthalpy correction       ...      0.00094421 Eh       0.59 kcal/mol
-----------------------------------------------------------------------
Total Enthalpy                    ...   -381.99739194 Eh

Note: Only C1 symmetry has been detected, increase convergence thresholds
      if your molecule has a higher symmetry. Symmetry factor of 1.0 is
      used for the rotational entropy correction.

Note: Rotational entropy computed according to Herzberg
Infrared and Raman Spectra, Chapter V,1, Van Nostrand Reinhold, 1945
Point Group:  C1, Symmetry Number:   1
Rotational constants in cm-1:     0.068456     0.068133     0.034867

Vibrational entropy computed according to the QRRHO of S. Grimme
Chem.Eur.J. 2012 18 9955

-------
ENTROPY
-------

The entropy contributions are T*S = T*(S(el)+S(vib)+S(rot)+S(trans))
     S(el)   - electronic entropy
     S(vib)  - vibrational entropy
     S(rot)  - rotational entropy
     S(trans)- translational entropy
The entropies will be listed as mutliplied by the temperature to get
units of energy

Electronic entropy                ...      0.00000000 Eh      0.00 kcal/mol
Vibrational entropy               ...      0.01745052 Eh     10.95 kcal/mol
Rotational entropy                ...      0.01362936 Eh      8.55 kcal/mol
Translational entropy             ...      0.01872320 Eh     11.75 kcal/mol
-----------------------------------------------------------------------
Final entropy term                ...      0.04980308 Eh     31.25 kcal/mol

In case the symmetry of your molecule has not been determined correctly
or in case you have a reason to use a different symmetry number we print
out the resulting rotational entropy values for sn=1,12 :
 --------------------------------------------------------
|  sn= 1 | S(rot)=       0.01362936 Eh      8.55 kcal/mol|
|  sn= 2 | S(rot)=       0.01297491 Eh      8.14 kcal/mol|
|  sn= 3 | S(rot)=       0.01259207 Eh      7.90 kcal/mol|
|  sn= 4 | S(rot)=       0.01232045 Eh      7.73 kcal/mol|
|  sn= 5 | S(rot)=       0.01210976 Eh      7.60 kcal/mol|
|  sn= 6 | S(rot)=       0.01193762 Eh      7.49 kcal/mol|
|  sn= 7 | S(rot)=       0.01179207 Eh      7.40 kcal/mol|
|  sn= 8 | S(rot)=       0.01166599 Eh      7.32 kcal/mol|
|  sn= 9 | S(rot)=       0.01155479 Eh      7.25 kcal/mol|
|  sn=10 | S(rot)=       0.01145531 Eh      7.19 kcal/mol|
|  sn=11 | S(rot)=       0.01136532 Eh      7.13 kcal/mol|
|  sn=12 | S(rot)=       0.01128316 Eh      7.08 kcal/mol|
 --------------------------------------------------------

-------------------
GIBBS FREE ENERGY
-------------------

The Gibbs free energy is G = H - T*S

Total enthalpy                    ...   -381.99739194 Eh
Total entropy correction          ...     -0.04980308 Eh    -31.25 kcal/mol
-----------------------------------------------------------------------

                             ****ORCA TERMINATED NORMALLY****
TOTAL RUN TIME: 0 days 1 hours 12 minutes 5 seconds 11 msec
