                         Program Version 4.2.0 -  RELEASE  -
|  1> #
|  2> # 06_H2O_6_ring b2-plyp/aug-cc-pvt(+d)z
|  3> #
|  4> ! rijk ri-b2plyp d3bj aug-cc-pvt(+d)z def2/jk def2-tzvp/c grid4 nofinalgrid opt xyzfile numfreq
|  5>
|  6> *xyz 0 1
|  7> O	0	2.709181	0.148099
|  8> H	-0.122498	3.233153	0.940879
|  9> H	-0.836919	2.216592	0.034772
| 10> O	-2.346219	-1.35459	0.148099
| 11> H	-1.501165	-1.833089	0.034772
| 12> H	-2.738743	-1.722662	0.940879
| 13> O	2.34622	1.354591	-0.148098
| 14> H	2.738743	1.722663	-0.940878
| 15> H	1.501165	1.83309	-0.034772
| 16> O	0	-2.709181	-0.148098
| 17> H	0.83692	-2.216591	-0.034772
| 18> H	0.122498	-3.233152	-0.940878
| 19> O	2.34622	-1.35459	0.148099
| 20> H	2.861241	-1.510489	0.940879
| 21> H	2.338085	-0.383502	0.034772
| 22> O	-2.346219	1.354591	-0.148098
| 23> H	-2.861241	1.51049	-0.940878
| 24> H	-2.338084	0.383502	-0.034772
| 25> *
| 26>
| 27> %maxcore 5000
| 28>
| 29> %pal
| 30> nprocs 24
| 31> end
| 32>
| 33>
| 34>                          ****END OF INPUT****
 Total Charge           Charge          ....    0
 Multiplicity           Mult            ....    1
 Number of Electrons    NEL             ....   60
Dispersion correction            ... done
MP2 TOTAL ENERGY:     -458.558205957 Eh
Dispersion correction           -0.004906301
FINAL SINGLE POINT ENERGY      -458.563112258061
Dispersion correction            ... done
MP2 TOTAL ENERGY:     -458.558366184 Eh
Dispersion correction           -0.004914972
FINAL SINGLE POINT ENERGY      -458.563281156832
FINAL SINGLE POINT ENERGY      -458.563342176825
Dispersion correction            ... done
MP2 TOTAL ENERGY:     -458.558386228 Eh
Dispersion correction           -0.004962792
FINAL SINGLE POINT ENERGY      -458.563349019562
                    ***********************HURRAY********************

CARTESIAN COORDINATES (ANGSTROEM)
---------------------------------
  O      0.001249    2.685311    0.160427
  H     -0.114669    3.202508    0.960484
  H     -0.840932    2.192357    0.036531
  O     -2.325269   -1.340034    0.160385
  H     -1.477080   -1.822548    0.036434
  H     -2.714905   -1.699198    0.960524
  O      2.325273    1.340067   -0.160148
  H      2.715062    1.699374   -0.960147
  H      1.477062    1.822562   -0.036275
  O     -0.001302   -2.685310   -0.160404
  H      0.840893   -2.192357   -0.036612
  H      0.114527   -3.202530   -0.960459
  O      2.325392   -1.345053    0.160205
  H      2.831009   -1.502759    0.960522
  H      2.318417   -0.369209    0.036511
  O     -2.325410    1.345028   -0.160465
  H     -2.830868    1.502593   -0.960914
  H     -2.318444    0.369206   -0.036592

 Multiplicity           Mult            ....    1
 Number of Electrons    NEL             ....   60
 Basis Dimension        Dim             ....  552

ORBITAL ENERGIES
----------------

  NO   OCC          E(Eh)            E(eV)
   0   2.0000     -19.723296      -536.6982
   1   2.0000     -19.723295      -536.6981
   2   2.0000     -19.723288      -536.6980
   3   2.0000     -19.723285      -536.6979
   4   2.0000     -19.723275      -536.6976
   5   2.0000     -19.723274      -536.6976
   6   2.0000      -1.161721       -31.6120
   7   2.0000      -1.154556       -31.4171
   8   2.0000      -1.154546       -31.4168
   9   2.0000      -1.139495       -31.0072
  10   2.0000      -1.139485       -31.0070
  11   2.0000      -1.131515       -30.7901
  12   2.0000      -0.611588       -16.6422
  13   2.0000      -0.610313       -16.6075
  14   2.0000      -0.609918       -16.5967
  15   2.0000      -0.609882       -16.5957
  16   2.0000      -0.609313       -16.5802
  17   2.0000      -0.609276       -16.5793
  18   2.0000      -0.517971       -14.0947
  19   2.0000      -0.496885       -13.5209
  20   2.0000      -0.496862       -13.5203
  21   2.0000      -0.451062       -12.2740
  22   2.0000      -0.451049       -12.2737
  23   2.0000      -0.428498       -11.6600
  24   2.0000      -0.395841       -10.7714
  25   2.0000      -0.395822       -10.7709
  26   2.0000      -0.395164       -10.7530
  27   2.0000      -0.395157       -10.7528
  28   2.0000      -0.393955       -10.7201
  29   2.0000      -0.393180       -10.6990
  30   0.0000       0.000449         0.0122
  31   0.0000       0.016714         0.4548
  32   0.0000       0.016715         0.4548
  33   0.0000       0.027234         0.7411
  34   0.0000       0.033789         0.9194

Dispersion correction            ... done

MULLIKEN ATOMIC CHARGES
-----------------------
   0 O :   -0.415112
   1 H :    0.152510
   2 H :    0.262630
   3 O :   -0.415174
   4 H :    0.262831
   5 H :    0.152188
   6 O :   -0.415167
   7 H :    0.152187
   8 H :    0.262832
   9 O :   -0.415109
  10 H :    0.262623
  11 H :    0.152508
  12 O :   -0.415275
  13 H :    0.152094
  14 H :    0.263311
  15 O :   -0.415291
  16 H :    0.152099
  17 H :    0.263315
Sum of atomic charges:   -0.0000000

LOEWDIN ATOMIC CHARGES
----------------------
   0 O :    1.125926
   1 H :   -0.448940
   2 H :   -0.677050
   3 O :    1.125964
   4 H :   -0.676959
   5 H :   -0.448894
   6 O :    1.125964
   7 H :   -0.448894
   8 H :   -0.676954
   9 O :    1.125928
  10 H :   -0.677057
  11 H :   -0.448939
  12 O :    1.125929
  13 H :   -0.448927
  14 H :   -0.677045
  15 O :    1.125923
  16 H :   -0.448925
  17 H :   -0.677047

  Mayer bond orders larger than 0.100000
B(  0-O ,  1-H ) :   1.0376 B(  0-O ,  2-H ) :   0.8677 B(  0-O ,  8-H ) :   0.1112
B(  2-H , 15-O ) :   0.1111 B(  3-O ,  4-H ) :   0.8673 B(  3-O ,  5-H ) :   1.0377
B(  3-O , 17-H ) :   0.1110 B(  4-H ,  9-O ) :   0.1112 B(  6-O ,  7-H ) :   1.0378
B(  6-O ,  8-H ) :   0.8673 B(  6-O , 14-H ) :   0.1110 B(  9-O , 10-H ) :   0.8677
B(  9-O , 11-H ) :   1.0376 B( 10-H , 12-O ) :   0.1111 B( 12-O , 13-H ) :   1.0381
B( 12-O , 14-H ) :   0.8668 B( 15-O , 16-H ) :   1.0380 B( 15-O , 17-H ) :   0.8668

MP2 TOTAL ENERGY:     -458.558384952 Eh
Dispersion correction           -0.004963695
FINAL SINGLE POINT ENERGY      -458.563348647051

DIPOLE MOMENT
-------------
                                X             Y             Z
Electronic contribution:     -0.00003       0.00001      -0.00000
Nuclear contribution   :      0.00017      -0.00002       0.00000
                        -----------------------------------------
Total Dipole Moment    :      0.00014      -0.00001       0.00000
                        -----------------------------------------
Magnitude (a.u.)       :      0.00014
Magnitude (Debye)      :      0.00035

VIBRATIONAL FREQUENCIES
-----------------------

Scaling factor for frequencies =  1.000000000 (already applied!)

   0:         0.00 cm**-1
   1:         0.00 cm**-1
   2:         0.00 cm**-1
   3:         0.00 cm**-1
   4:         0.00 cm**-1
   5:         0.00 cm**-1
   6:        33.80 cm**-1
   7:        40.62 cm**-1
   8:        45.01 cm**-1
   9:        49.05 cm**-1
  10:        59.16 cm**-1
  11:        85.59 cm**-1
  12:       162.13 cm**-1
  13:       209.03 cm**-1
  14:       220.24 cm**-1
  15:       220.63 cm**-1
  16:       221.35 cm**-1
  17:       239.40 cm**-1
  18:       280.18 cm**-1
  19:       289.87 cm**-1
  20:       305.18 cm**-1
  21:       306.67 cm**-1
  22:       310.24 cm**-1
  23:       338.29 cm**-1
  24:       432.80 cm**-1
  25:       444.88 cm**-1
  26:       454.80 cm**-1
  27:       468.44 cm**-1
  28:       473.50 cm**-1
  29:       475.74 cm**-1
  30:       792.81 cm**-1
  31:       811.80 cm**-1
  32:       817.78 cm**-1
  33:       905.14 cm**-1
  34:       909.95 cm**-1
  35:       981.91 cm**-1
  36:      1646.71 cm**-1
  37:      1657.24 cm**-1
  38:      1659.89 cm**-1
  39:      1686.42 cm**-1
  40:      1688.16 cm**-1
  41:      1703.91 cm**-1
  42:      3314.42 cm**-1
  43:      3390.37 cm**-1
  44:      3394.52 cm**-1
  45:      3450.60 cm**-1
  46:      3453.04 cm**-1
  47:      3471.41 cm**-1
  48:      3883.91 cm**-1
  49:      3884.06 cm**-1
  50:      3884.57 cm**-1
  51:      3884.66 cm**-1
  52:      3885.09 cm**-1
  53:      3885.27 cm**-1

IR SPECTRUM
-----------

 Mode    freq (cm**-1)   T**2         TX         TY         TZ
-------------------------------------------------------------------
   6:        33.80    0.061756  (  0.138215   0.205614  -0.019379)
   7:        40.62    0.181037  (  0.231688  -0.348066  -0.078794)
   8:        45.01    0.001514  (  0.030959  -0.020968  -0.010787)
   9:        49.05    0.000408  ( -0.015683   0.003741  -0.012166)
  10:        59.16    0.000121  (  0.005983   0.007136  -0.005870)
  11:        85.59    3.196046  ( -0.063844  -0.165397   1.778936)
  12:       162.13    0.001520  (  0.033648  -0.010520  -0.016660)
  13:       209.03   74.050944  ( -0.199573   1.243533   8.512622)
  14:       220.24   34.413644  (  2.568647  -4.951026  -1.817427)
  15:       220.63   27.215728  ( -3.993454  -1.929198  -2.747044)
  16:       221.35    0.122869  ( -0.259221  -0.096927  -0.215124)
  17:       239.40    0.015882  (  0.001834   0.124812   0.017338)
  18:       280.18  333.293963  ( 14.032511  11.646965  -0.854871)
  19:       289.87  334.964924  ( 11.801641 -13.960590   0.887754)
  20:       305.18    0.179478  ( -0.274359   0.322752  -0.006007)
  21:       306.67    0.026074  (  0.101314  -0.125735  -0.000076)
  22:       310.24    0.088172  (  0.180184  -0.235976   0.004627)
  23:       338.29    3.152951  ( -0.291448   0.123727   1.747198)
  24:       432.80    0.772664  (  0.501473   0.695549   0.193392)
  25:       444.88   49.382654  (  4.466479   5.399389   0.528978)
  26:       454.80   40.808753  ( -5.083843   3.867967  -0.046030)
  27:       468.44   29.655282  ( -1.147590  -1.084903   5.211651)
  28:       473.50    1.403096  (  0.072786  -0.014738   1.182193)
  29:       475.74    0.547702  ( -0.100599  -0.001042  -0.733199)
  30:       792.81  251.113368  (  0.355995  -0.180085 -15.841534)
  31:       811.80    0.003286  ( -0.000215  -0.031329  -0.048000)
  32:       817.78    0.007647  ( -0.017631   0.025016  -0.081916)
  33:       905.14  161.871497  ( 12.332294  -3.078217   0.557318)
  34:       909.95  151.056535  (  3.091180  11.894552  -0.144087)
  35:       981.91    0.002145  (  0.039849   0.006294   0.022758)
  36:      1646.71  101.293886  (  0.509393  -0.054543 -10.051439)
  37:      1657.24    0.127880  ( -0.099412  -0.003950  -0.343485)
  38:      1659.89    0.001616  ( -0.018485   0.005507  -0.035267)
  39:      1686.42   84.047546  (  9.044259   1.460306   0.341214)
  40:      1688.16   80.749309  (  1.269831  -8.893803   0.192606)
  41:      1703.91    0.017092  ( -0.125849  -0.017836   0.030589)
  42:      3314.42    0.000330  (  0.013621   0.011958  -0.001235)
  43:      3390.37  2820.881740  (-17.574549 -50.119753   0.165359)
  44:      3394.52  2791.908991  (-49.811869  17.622289  -0.376370)
  45:      3450.60    0.000754  (  0.021119  -0.004826   0.016879)
  46:      3453.04    0.000309  ( -0.005513   0.014916   0.007510)
  47:      3471.41  172.643893  ( -0.664711   0.556716  13.110763)
  48:      3883.91  107.339145  ( -6.331644  -0.180611   8.198586)
  49:      3884.06   55.716516  ( -4.264725  -0.052544   6.125837)
  50:      3884.57   98.695849  ( -6.161110   2.852334  -7.252638)
  51:      3884.66   51.565480  (  4.403129  -2.172390   5.240101)
  52:      3885.09  116.711760  (  2.467192   9.982897   3.311570)
  53:      3885.27    8.959543  ( -0.445611  -2.764762  -1.056912)

--------------------------
THERMOCHEMISTRY AT 298.15K
--------------------------

Temperature         ... 298.15 K
Pressure            ... 1.00 atm
Total Mass          ... 108.09 AMU

Throughout the following assumptions are being made:
  (1) The electronic state is orbitally nondegenerate
  (2) There are no thermally accessible electronically excited states
  (3) Hindered rotations indicated by low frequency modes are not
      treated as such but are treated as vibrations and this may
      cause some error
  (4) All equations used are the standard statistical mechanics
      equations for an ideal gas
  (5) All vibrations are strictly harmonic

freq.      33.80  E(vib)   ...       0.55
freq.      40.62  E(vib)   ...       0.54
freq.      45.01  E(vib)   ...       0.53
freq.      49.05  E(vib)   ...       0.53
freq.      59.16  E(vib)   ...       0.51
freq.      85.59  E(vib)   ...       0.48
freq.     162.13  E(vib)   ...       0.39
freq.     209.03  E(vib)   ...       0.34
freq.     220.24  E(vib)   ...       0.33
freq.     220.63  E(vib)   ...       0.33
freq.     221.35  E(vib)   ...       0.33
freq.     239.40  E(vib)   ...       0.31
freq.     280.18  E(vib)   ...       0.28
freq.     289.87  E(vib)   ...       0.27
freq.     305.18  E(vib)   ...       0.26
freq.     306.67  E(vib)   ...       0.26
freq.     310.24  E(vib)   ...       0.26
freq.     338.29  E(vib)   ...       0.23
freq.     432.80  E(vib)   ...       0.17
freq.     444.88  E(vib)   ...       0.17
freq.     454.80  E(vib)   ...       0.16
freq.     468.44  E(vib)   ...       0.16
freq.     473.50  E(vib)   ...       0.15
freq.     475.74  E(vib)   ...       0.15
freq.     792.81  E(vib)   ...       0.05
freq.     811.80  E(vib)   ...       0.05
freq.     817.78  E(vib)   ...       0.05
freq.     905.14  E(vib)   ...       0.03
freq.     909.95  E(vib)   ...       0.03
freq.     981.91  E(vib)   ...       0.02
freq.    1646.71  E(vib)   ...       0.00
freq.    1657.24  E(vib)   ...       0.00
freq.    1659.89  E(vib)   ...       0.00
freq.    1686.42  E(vib)   ...       0.00
freq.    1688.16  E(vib)   ...       0.00
freq.    1703.91  E(vib)   ...       0.00
freq.    3314.42  E(vib)   ...       0.00
freq.    3390.37  E(vib)   ...       0.00
freq.    3394.52  E(vib)   ...       0.00
freq.    3450.60  E(vib)   ...       0.00
freq.    3453.04  E(vib)   ...       0.00
freq.    3471.41  E(vib)   ...       0.00
freq.    3883.91  E(vib)   ...       0.00
freq.    3884.06  E(vib)   ...       0.00
freq.    3884.57  E(vib)   ...       0.00
freq.    3884.66  E(vib)   ...       0.00
freq.    3885.09  E(vib)   ...       0.00
freq.    3885.27  E(vib)   ...       0.00

------------
INNER ENERGY
------------

The inner energy is: U= E(el) + E(ZPE) + E(vib) + E(rot) + E(trans)
    E(el)   - is the total energy from the electronic structure calculation
              = E(kin-el) + E(nuc-el) + E(el-el) + E(nuc-nuc)
    E(ZPE)  - the the zero temperature vibrational energy from the frequency calculation
    E(vib)  - the the finite temperature correction to E(ZPE) due to population
              of excited vibrational states
    E(rot)  - is the rotational thermal energy
    E(trans)- is the translational thermal energy

Summary of contributions to the inner energy U:
Electronic energy                ...   -458.56334863 Eh
Zero point energy                ...      0.14855988 Eh      93.22 kcal/mol
Thermal vibrational correction   ...      0.01265881 Eh       7.94 kcal/mol
Thermal rotational correction    ...      0.00141627 Eh       0.89 kcal/mol
Thermal translational correction ...      0.00141627 Eh       0.89 kcal/mol
-----------------------------------------------------------------------
Total thermal energy                   -458.39929739 Eh

Summary of corrections to the electronic energy:
(perhaps to be used in another calculation)
Total thermal correction                  0.01549136 Eh       9.72 kcal/mol
Non-thermal (ZPE) correction              0.14855988 Eh      93.22 kcal/mol
-----------------------------------------------------------------------
Total correction                          0.16405124 Eh     102.94 kcal/mol

--------
ENTHALPY
--------

The enthalpy is H = U + kB*T
                kB is Boltzmann's constant
Total free energy                 ...   -458.39929739 Eh
Thermal Enthalpy correction       ...      0.00094421 Eh       0.59 kcal/mol
-----------------------------------------------------------------------
Total Enthalpy                    ...   -458.39835318 Eh

Note: Only C1 symmetry has been detected, increase convergence thresholds
      if your molecule has a higher symmetry. Symmetry factor of 1.0 is
      used for the rotational entropy correction.

Note: Rotational entropy computed according to Herzberg
Infrared and Raman Spectra, Chapter V,1, Van Nostrand Reinhold, 1945
Point Group:  C1, Symmetry Number:   1
Rotational constants in cm-1:     0.041984     0.041922     0.021406

Vibrational entropy computed according to the QRRHO of S. Grimme
Chem.Eur.J. 2012 18 9955

-------
ENTROPY
-------

The entropy contributions are T*S = T*(S(el)+S(vib)+S(rot)+S(trans))
     S(el)   - electronic entropy
     S(vib)  - vibrational entropy
     S(rot)  - rotational entropy
     S(trans)- translational entropy
The entropies will be listed as mutliplied by the temperature to get
units of energy

Electronic entropy                ...      0.00000000 Eh      0.00 kcal/mol
Vibrational entropy               ...      0.02286850 Eh     14.35 kcal/mol
Rotational entropy                ...      0.01431977 Eh      8.99 kcal/mol
Translational entropy             ...      0.01898142 Eh     11.91 kcal/mol
-----------------------------------------------------------------------
Final entropy term                ...      0.05616969 Eh     35.25 kcal/mol

In case the symmetry of your molecule has not been determined correctly
or in case you have a reason to use a different symmetry number we print
out the resulting rotational entropy values for sn=1,12 :
 --------------------------------------------------------
|  sn= 1 | S(rot)=       0.01431977 Eh      8.99 kcal/mol|
|  sn= 2 | S(rot)=       0.01366531 Eh      8.58 kcal/mol|
|  sn= 3 | S(rot)=       0.01328248 Eh      8.33 kcal/mol|
|  sn= 4 | S(rot)=       0.01301086 Eh      8.16 kcal/mol|
|  sn= 5 | S(rot)=       0.01280017 Eh      8.03 kcal/mol|
|  sn= 6 | S(rot)=       0.01262802 Eh      7.92 kcal/mol|
|  sn= 7 | S(rot)=       0.01248248 Eh      7.83 kcal/mol|
|  sn= 8 | S(rot)=       0.01235640 Eh      7.75 kcal/mol|
|  sn= 9 | S(rot)=       0.01224519 Eh      7.68 kcal/mol|
|  sn=10 | S(rot)=       0.01214571 Eh      7.62 kcal/mol|
|  sn=11 | S(rot)=       0.01205572 Eh      7.57 kcal/mol|
|  sn=12 | S(rot)=       0.01197357 Eh      7.51 kcal/mol|
 --------------------------------------------------------

                             ****ORCA TERMINATED NORMALLY****
TOTAL RUN TIME: 0 days 2 hours 50 minutes 5 seconds 730 msec
