                         Program Version 4.2.0 -  RELEASE  -
|  1> #
|  2> # 07_H2O_6_book b2-plyp/aug-cc-pvt(+d)z
|  3> #
|  4> ! rijk ri-b2plyp d3bj aug-cc-pvt(+d)z def2/jk def2-tzvp/c grid4 nofinalgrid opt xyzfile numfreq
|  5>
|  6> *xyz 0 1
|  7> O	0.116757	1.553296	0.874144
|  8> H	0.955357	1.526953	0.36374
|  9> H	0.278593	2.140101	1.61497
| 10> O	-0.028991	-1.36957	0.910464
| 11> H	-0.055528	-0.424567	1.109294
| 12> H	-0.872074	-1.539194	0.457007
| 13> O	-2.340721	1.363977	-0.433023
| 14> H	-1.482171	1.543988	-0.013805
| 15> H	-2.349173	1.886417	-1.236377
| 16> O	-2.490803	-1.41279	-0.437012
| 17> H	-2.562332	-0.444637	-0.504051
| 18> H	-3.290032	-1.695404	0.010212
| 19> O	2.424786	1.214249	-0.477895
| 20> H	2.508896	0.237506	-0.500154
| 21> H	2.55493	1.502809	-1.382466
| 22> O	2.31194	-1.486888	-0.434852
| 23> H	1.449966	-1.577886	0.025804
| 24> H	2.919833	-2.054267	0.041233
| 25> *
| 26>
| 27> %maxcore 5000
| 28>
| 29> %pal
| 30> nprocs 24
| 31> end
| 32>
| 33>
| 34>                          ****END OF INPUT****
 Total Charge           Charge          ....    0
 Multiplicity           Mult            ....    1
 Number of Electrons    NEL             ....   60
Dispersion correction            ... done
MP2 TOTAL ENERGY:     -458.558783041 Eh
Dispersion correction           -0.005849609
FINAL SINGLE POINT ENERGY      -458.564632650370
Dispersion correction            ... done
MP2 TOTAL ENERGY:     -458.558915903 Eh
Dispersion correction           -0.005851187
FINAL SINGLE POINT ENERGY      -458.564767090180
FINAL SINGLE POINT ENERGY      -458.564812773010
Dispersion correction            ... done
MP2 TOTAL ENERGY:     -458.558923449 Eh
Dispersion correction           -0.005903312
FINAL SINGLE POINT ENERGY      -458.564826760851
                    ***********************HURRAY********************

CARTESIAN COORDINATES (ANGSTROEM)
---------------------------------
  O      0.118939    1.546288    0.871611
  H      0.961839    1.517233    0.355601
  H      0.275110    2.133423    1.615226
  O     -0.028182   -1.364139    0.906567
  H     -0.054180   -0.416703    1.106960
  H     -0.873941   -1.535757    0.449792
  O     -2.323004    1.355831   -0.429941
  H     -1.461008    1.535658   -0.007431
  H     -2.338191    1.877477   -1.235481
  O     -2.475252   -1.407738   -0.437793
  H     -2.543920   -0.434692   -0.502825
  H     -3.274712   -1.697636    0.007631
  O      2.407004    1.208169   -0.477423
  H      2.489046    0.224790   -0.497838
  H      2.534217    1.503656   -1.381746
  O      2.295413   -1.475214   -0.430529
  H      1.428255   -1.566269    0.034478
  H      2.911800   -2.040284    0.040373

 Multiplicity           Mult            ....    1
 Number of Electrons    NEL             ....   60
 Basis Dimension        Dim             ....  552

ORBITAL ENERGIES
----------------

  NO   OCC          E(Eh)            E(eV)
   0   2.0000     -19.744324      -537.2704
   1   2.0000     -19.734148      -536.9935
   2   2.0000     -19.732666      -536.9531
   3   2.0000     -19.721763      -536.6565
   4   2.0000     -19.721399      -536.6465
   5   2.0000     -19.708748      -536.3023
   6   2.0000      -1.175007       -31.9736
   7   2.0000      -1.160539       -31.5799
   8   2.0000      -1.155078       -31.4313
   9   2.0000      -1.146595       -31.2004
  10   2.0000      -1.141684       -31.0668
  11   2.0000      -1.126391       -30.6506
  12   2.0000      -0.634327       -17.2609
  13   2.0000      -0.623043       -16.9539
  14   2.0000      -0.619100       -16.8466
  15   2.0000      -0.608595       -16.5607
  16   2.0000      -0.604174       -16.4404
  17   2.0000      -0.590297       -16.0628
  18   2.0000      -0.523575       -14.2472
  19   2.0000      -0.496462       -13.5094
  20   2.0000      -0.484510       -13.1842
  21   2.0000      -0.471623       -12.8335
  22   2.0000      -0.458536       -12.4774
  23   2.0000      -0.436839       -11.8870
  24   2.0000      -0.414120       -11.2688
  25   2.0000      -0.404283       -11.0011
  26   2.0000      -0.403477       -10.9792
  27   2.0000      -0.393390       -10.7047
  28   2.0000      -0.389234       -10.5916
  29   2.0000      -0.380279       -10.3479
  30   0.0000      -0.003502        -0.0953
  31   0.0000       0.015299         0.4163
  32   0.0000       0.020346         0.5536
  33   0.0000       0.020893         0.5685
  34   0.0000       0.032186         0.8758

Dispersion correction            ... done

MULLIKEN ATOMIC CHARGES
-----------------------
   0 O :   -0.516542
   1 H :    0.310827
   2 H :    0.147906
   3 O :   -0.536443
   4 H :    0.300453
   5 H :    0.266696
   6 O :   -0.447365
   7 H :    0.300948
   8 H :    0.155367
   9 O :   -0.437453
  10 H :    0.293214
  11 H :    0.148181
  12 O :   -0.402516
  13 H :    0.281119
  14 H :    0.134791
  15 O :   -0.417697
  16 H :    0.285940
  17 H :    0.132575
Sum of atomic charges:   -0.0000000

LOEWDIN ATOMIC CHARGES
----------------------
   0 O :    1.145740
   1 H :   -0.657444
   2 H :   -0.425787
   3 O :    1.139484
   4 H :   -0.580307
   5 H :   -0.625486
   6 O :    1.117961
   7 H :   -0.651413
   8 H :   -0.457366
   9 O :    1.106710
  10 H :   -0.658664
  11 H :   -0.463571
  12 O :    1.126143
  13 H :   -0.666360
  14 H :   -0.447184
  15 O :    1.118851
  16 H :   -0.669131
  17 H :   -0.452176

  Mayer bond orders larger than 0.100000
B(  0-O ,  1-H ) :   0.7739 B(  0-O ,  2-H ) :   1.0294 B(  1-H , 12-O ) :   0.1323
B(  3-O ,  4-H ) :   0.8477 B(  3-O ,  5-H ) :   0.9011 B(  3-O , 16-H ) :   0.1078
B(  6-O ,  7-H ) :   0.8356 B(  6-O ,  8-H ) :   1.0422 B(  9-O , 10-H ) :   0.8452
B(  9-O , 11-H ) :   1.0462 B( 12-O , 13-H ) :   0.8226 B( 12-O , 14-H ) :   1.0462
B( 13-H , 15-O ) :   0.1128 B( 15-O , 16-H ) :   0.8126 B( 15-O , 17-H ) :   1.0658

MP2 TOTAL ENERGY:     -458.558923453 Eh
Dispersion correction           -0.005904778
FINAL SINGLE POINT ENERGY      -458.564828231749

DIPOLE MOMENT
-------------
                                X             Y             Z
Electronic contribution:      0.01660      -0.19723      -0.00750
Nuclear contribution   :      0.05367       1.14408      -0.01685
                        -----------------------------------------
Total Dipole Moment    :      0.07027       0.94685      -0.02435
                        -----------------------------------------
Magnitude (a.u.)       :      0.94977
Magnitude (Debye)      :      2.41411

VIBRATIONAL FREQUENCIES
-----------------------

Scaling factor for frequencies =  1.000000000 (already applied!)

   0:         0.00 cm**-1
   1:         0.00 cm**-1
   2:         0.00 cm**-1
   3:         0.00 cm**-1
   4:         0.00 cm**-1
   5:         0.00 cm**-1
   6:        31.92 cm**-1
   7:        36.46 cm**-1
   8:        56.51 cm**-1
   9:        73.01 cm**-1
  10:        91.45 cm**-1
  11:       157.38 cm**-1
  12:       185.23 cm**-1
  13:       197.97 cm**-1
  14:       202.86 cm**-1
  15:       232.92 cm**-1
  16:       242.57 cm**-1
  17:       252.93 cm**-1
  18:       259.15 cm**-1
  19:       282.14 cm**-1
  20:       291.35 cm**-1
  21:       302.93 cm**-1
  22:       316.07 cm**-1
  23:       400.45 cm**-1
  24:       416.00 cm**-1
  25:       456.36 cm**-1
  26:       467.61 cm**-1
  27:       495.23 cm**-1
  28:       552.31 cm**-1
  29:       617.90 cm**-1
  30:       738.19 cm**-1
  31:       761.00 cm**-1
  32:       839.14 cm**-1
  33:       860.59 cm**-1
  34:       911.83 cm**-1
  35:      1027.55 cm**-1
  36:      1644.68 cm**-1
  37:      1655.42 cm**-1
  38:      1658.57 cm**-1
  39:      1676.27 cm**-1
  40:      1688.80 cm**-1
  41:      1717.89 cm**-1
  42:      3253.30 cm**-1
  43:      3335.62 cm**-1
  44:      3392.33 cm**-1
  45:      3500.46 cm**-1
  46:      3561.84 cm**-1
  47:      3577.23 cm**-1
  48:      3716.47 cm**-1
  49:      3873.92 cm**-1
  50:      3880.56 cm**-1
  51:      3881.74 cm**-1
  52:      3884.05 cm**-1
  53:      3885.10 cm**-1

IR SPECTRUM
-----------

 Mode    freq (cm**-1)   T**2         TX         TY         TZ
-------------------------------------------------------------------
   6:        31.92    0.967698  (  0.671676   0.040282  -0.717584)
   7:        36.46    0.794140  ( -0.258506   0.179412  -0.833742)
   8:        56.51    1.483051  ( -0.582551  -0.066977  -1.067333)
   9:        73.01    0.758256  ( -0.730404   0.268144   0.390980)
  10:        91.45    5.789654  (  0.172933  -1.036077  -2.164784)
  11:       157.38    0.579432  ( -0.732709   0.203592  -0.033462)
  12:       185.23    5.618489  ( -1.325242   1.566974   1.186092)
  13:       197.97   45.964507  (  1.221565   6.021658   2.865646)
  14:       202.86   50.868282  ( -6.004817   2.204160   3.154700)
  15:       232.92   15.527522  (  3.135648  -2.287924   0.678703)
  16:       242.57  142.162142  (  1.215045  11.035565   4.347657)
  17:       252.93  143.820480  (-10.706285  -1.827603  -5.084861)
  18:       259.15   16.306219  (  1.551335   3.625264   0.870079)
  19:       282.14   75.502195  ( -7.301064   4.619058   0.927885)
  20:       291.35    3.232886  (  1.275396  -0.558394   1.137739)
  21:       302.93   48.613625  (  4.203193  -4.532358  -3.225605)
  22:       316.07   60.014833  (  2.316760   3.935894  -6.257491)
  23:       400.45   25.268753  ( -4.120379  -2.635358  -1.160223)
  24:       416.00   57.328821  ( -2.114935   5.319115  -4.956096)
  25:       456.36   37.222182  (  4.527415   2.904583  -2.878905)
  26:       467.61   10.425105  ( -0.895753  -2.220921   2.165696)
  27:       495.23   31.244241  ( -4.556365   2.649201   1.861587)
  28:       552.31   10.864894  ( -1.649917  -2.305934   1.680873)
  29:       617.90   61.269388  ( -0.491416  -4.706325   6.235255)
  30:       738.19  168.208685  (  2.619668 -11.962632  -4.271003)
  31:       761.00  196.294452  (  2.712700   4.310787 -13.051928)
  32:       839.14  212.733392  (-13.560514  -2.197732  -4.900595)
  33:       860.59   61.728438  ( -4.091281  -2.803562  -6.093431)
  34:       911.83  111.042964  (  3.547618  -9.452814  -3.016898)
  35:      1027.55   21.103847  ( -2.432266  -1.544332   3.578124)
  36:      1644.68   77.147644  ( -7.664606  -3.871215  -1.848014)
  37:      1655.42   86.734193  ( -3.489740  -1.431388   8.515107)
  38:      1658.57   84.756770  (  3.680091  -8.369341   1.080663)
  39:      1676.27    4.090583  (  1.942849   0.218077   0.518038)
  40:      1688.80   42.744366  (  5.647539  -3.287920   0.198117)
  41:      1717.89   18.266626  (  3.515359  -1.879837   1.541134)
  42:      3253.30  262.375938  ( -0.733433  16.103373   1.587257)
  43:      3335.62  2196.032497  ( 43.316901  -2.283247 -17.733173)
  44:      3392.33  650.662898  ( -3.203961  25.101911  -3.208056)
  45:      3500.46  335.822586  (  2.986506  18.080417   0.043555)
  46:      3561.84  877.347333  ( 24.276364  -3.013424  16.701041)
  47:      3577.23  244.319063  ( -6.702731 -14.065014  -1.252136)
  48:      3716.47  441.737000  ( -7.276692 -18.996494  -5.283936)
  49:      3873.92   80.539872  (  2.207325  -4.208897  -7.612672)
  50:      3880.56   68.086533  (  1.202549   5.654941  -5.887448)
  51:      3881.74   78.074160  ( -5.492616  -6.509491   2.351992)
  52:      3884.05  111.992074  (  5.365464  -3.934527   8.229421)
  53:      3885.10   55.372311  ( -6.707100   3.221764  -0.085755)

--------------------------
THERMOCHEMISTRY AT 298.15K
--------------------------

Temperature         ... 298.15 K
Pressure            ... 1.00 atm
Total Mass          ... 108.09 AMU

Throughout the following assumptions are being made:
  (1) The electronic state is orbitally nondegenerate
  (2) There are no thermally accessible electronically excited states
  (3) Hindered rotations indicated by low frequency modes are not
      treated as such but are treated as vibrations and this may
      cause some error
  (4) All equations used are the standard statistical mechanics
      equations for an ideal gas
  (5) All vibrations are strictly harmonic

freq.      31.92  E(vib)   ...       0.55
freq.      36.46  E(vib)   ...       0.54
freq.      56.51  E(vib)   ...       0.52
freq.      73.01  E(vib)   ...       0.49
freq.      91.45  E(vib)   ...       0.47
freq.     157.38  E(vib)   ...       0.40
freq.     185.23  E(vib)   ...       0.37
freq.     197.97  E(vib)   ...       0.35
freq.     202.86  E(vib)   ...       0.35
freq.     232.92  E(vib)   ...       0.32
freq.     242.57  E(vib)   ...       0.31
freq.     252.93  E(vib)   ...       0.30
freq.     259.15  E(vib)   ...       0.30
freq.     282.14  E(vib)   ...       0.28
freq.     291.35  E(vib)   ...       0.27
freq.     302.93  E(vib)   ...       0.26
freq.     316.07  E(vib)   ...       0.25
freq.     400.45  E(vib)   ...       0.19
freq.     416.00  E(vib)   ...       0.18
freq.     456.36  E(vib)   ...       0.16
freq.     467.61  E(vib)   ...       0.16
freq.     495.23  E(vib)   ...       0.14
freq.     552.31  E(vib)   ...       0.12
freq.     617.90  E(vib)   ...       0.09
freq.     738.19  E(vib)   ...       0.06
freq.     761.00  E(vib)   ...       0.06
freq.     839.14  E(vib)   ...       0.04
freq.     860.59  E(vib)   ...       0.04
freq.     911.83  E(vib)   ...       0.03
freq.    1027.55  E(vib)   ...       0.02
freq.    1644.68  E(vib)   ...       0.00
freq.    1655.42  E(vib)   ...       0.00
freq.    1658.57  E(vib)   ...       0.00
freq.    1676.27  E(vib)   ...       0.00
freq.    1688.80  E(vib)   ...       0.00
freq.    1717.89  E(vib)   ...       0.00
freq.    3253.30  E(vib)   ...       0.00
freq.    3335.62  E(vib)   ...       0.00
freq.    3392.33  E(vib)   ...       0.00
freq.    3500.46  E(vib)   ...       0.00
freq.    3561.84  E(vib)   ...       0.00
freq.    3577.23  E(vib)   ...       0.00
freq.    3716.47  E(vib)   ...       0.00
freq.    3873.92  E(vib)   ...       0.00
freq.    3880.56  E(vib)   ...       0.00
freq.    3881.74  E(vib)   ...       0.00
freq.    3884.05  E(vib)   ...       0.00
freq.    3885.10  E(vib)   ...       0.00

------------
INNER ENERGY
------------

The inner energy is: U= E(el) + E(ZPE) + E(vib) + E(rot) + E(trans)
    E(el)   - is the total energy from the electronic structure calculation
              = E(kin-el) + E(nuc-el) + E(el-el) + E(nuc-nuc)
    E(ZPE)  - the the zero temperature vibrational energy from the frequency calculation
    E(vib)  - the the finite temperature correction to E(ZPE) due to population
              of excited vibrational states
    E(rot)  - is the rotational thermal energy
    E(trans)- is the translational thermal energy

Summary of contributions to the inner energy U:
Electronic energy                ...   -458.56482825 Eh
Zero point energy                ...      0.14931395 Eh      93.70 kcal/mol
Thermal vibrational correction   ...      0.01218255 Eh       7.64 kcal/mol
Thermal rotational correction    ...      0.00141627 Eh       0.89 kcal/mol
Thermal translational correction ...      0.00141627 Eh       0.89 kcal/mol
-----------------------------------------------------------------------
Total thermal energy                   -458.40049921 Eh

Summary of corrections to the electronic energy:
(perhaps to be used in another calculation)
Total thermal correction                  0.01501509 Eh       9.42 kcal/mol
Non-thermal (ZPE) correction              0.14931395 Eh      93.70 kcal/mol
-----------------------------------------------------------------------
Total correction                          0.16432904 Eh     103.12 kcal/mol

--------
ENTHALPY
--------

The enthalpy is H = U + kB*T
                kB is Boltzmann's constant
Total free energy                 ...   -458.40049921 Eh
Thermal Enthalpy correction       ...      0.00094421 Eh       0.59 kcal/mol
-----------------------------------------------------------------------
Total Enthalpy                    ...   -458.39955500 Eh

Note: Only C1 symmetry has been detected, increase convergence thresholds
      if your molecule has a higher symmetry. Symmetry factor of 1.0 is
      used for the rotational entropy correction.

Note: Rotational entropy computed according to Herzberg
Infrared and Raman Spectra, Chapter V,1, Van Nostrand Reinhold, 1945
Point Group:  C1, Symmetry Number:   1
Rotational constants in cm-1:     0.064616     0.036825     0.026908

Vibrational entropy computed according to the QRRHO of S. Grimme
Chem.Eur.J. 2012 18 9955

-------
ENTROPY
-------

The entropy contributions are T*S = T*(S(el)+S(vib)+S(rot)+S(trans))
     S(el)   - electronic entropy
     S(vib)  - vibrational entropy
     S(rot)  - rotational entropy
     S(trans)- translational entropy
The entropies will be listed as mutliplied by the temperature to get
units of energy

Electronic entropy                ...      0.00000000 Eh      0.00 kcal/mol
Vibrational entropy               ...      0.02185832 Eh     13.72 kcal/mol
Rotational entropy                ...      0.01406942 Eh      8.83 kcal/mol
Translational entropy             ...      0.01898142 Eh     11.91 kcal/mol
-----------------------------------------------------------------------
Final entropy term                ...      0.05490916 Eh     34.46 kcal/mol

In case the symmetry of your molecule has not been determined correctly
or in case you have a reason to use a different symmetry number we print
out the resulting rotational entropy values for sn=1,12 :
 --------------------------------------------------------
|  sn= 1 | S(rot)=       0.01406942 Eh      8.83 kcal/mol|
|  sn= 2 | S(rot)=       0.01341496 Eh      8.42 kcal/mol|
|  sn= 3 | S(rot)=       0.01303213 Eh      8.18 kcal/mol|
|  sn= 4 | S(rot)=       0.01276051 Eh      8.01 kcal/mol|
|  sn= 5 | S(rot)=       0.01254982 Eh      7.88 kcal/mol|
|  sn= 6 | S(rot)=       0.01237767 Eh      7.77 kcal/mol|
|  sn= 7 | S(rot)=       0.01223213 Eh      7.68 kcal/mol|
|  sn= 8 | S(rot)=       0.01210605 Eh      7.60 kcal/mol|
|  sn= 9 | S(rot)=       0.01199484 Eh      7.53 kcal/mol|
|  sn=10 | S(rot)=       0.01189536 Eh      7.46 kcal/mol|
|  sn=11 | S(rot)=       0.01180537 Eh      7.41 kcal/mol|
|  sn=12 | S(rot)=       0.01172322 Eh      7.36 kcal/mol|
 --------------------------------------------------------

                             ****ORCA TERMINATED NORMALLY****
TOTAL RUN TIME: 0 days 3 hours 24 minutes 11 seconds 931 msec
