                         Program Version 4.2.0 -  RELEASE  -
|  1> #
|  2> # 08_H2O_6_cage b2-plyp/aug-cc-pvt(+d)z
|  3> #
|  4> ! rijk ri-b2plyp d3bj aug-cc-pvt(+d)z def2/jk def2-tzvp/c grid4 nofinalgrid opt xyzfile numfreq
|  5>
|  6> *xyz 0 1
|  7> O	0.862065	-1.728538	-0.448765
|  8> H	1.679686	-1.216793	-0.290371
|  9> H	1.141594	-2.607406	-0.70991
| 10> O	-0.751083	0.359939	-1.648316
| 11> H	-0.283702	-0.473988	-1.502279
| 12> H	-1.624922	0.21572	-1.247934
| 13> O	0.590537	1.75631	0.198185
| 14> H	0.069166	1.374794	-0.548651
| 15> H	0.493944	2.707937	0.134574
| 16> O	-0.675492	-0.446436	1.665684
| 17> H	-0.188802	-1.063799	1.102054
| 18> H	-0.260662	0.405216	1.474464
| 19> O	2.803582	0.112403	0.084677
| 20> H	2.165098	0.844551	0.158067
| 21> H	3.282044	0.106258	0.915526
| 22> O	-2.901034	0.010949	0.089937
| 23> H	-2.258917	-0.224605	0.785219
| 24> H	-3.643112	-0.584893	0.198028
| 25> *
| 26>
| 27> %maxcore 5000
| 28>
| 29> %pal
| 30> nprocs 24
| 31> end
| 32>
| 33>
| 34>                          ****END OF INPUT****
 Total Charge           Charge          ....    0
 Multiplicity           Mult            ....    1
 Number of Electrons    NEL             ....   60
Dispersion correction            ... done
MP2 TOTAL ENERGY:     -458.558055591 Eh
Dispersion correction           -0.006824501
FINAL SINGLE POINT ENERGY      -458.564880092062
Dispersion correction            ... done
MP2 TOTAL ENERGY:     -458.558178853 Eh
Dispersion correction           -0.006805199
FINAL SINGLE POINT ENERGY      -458.564984051489
FINAL SINGLE POINT ENERGY      -458.565005170652
Dispersion correction            ... done
MP2 TOTAL ENERGY:     -458.558173815 Eh
Dispersion correction           -0.006848993
FINAL SINGLE POINT ENERGY      -458.565022808411
                    ***********************HURRAY********************

CARTESIAN COORDINATES (ANGSTROEM)
---------------------------------
  O      0.865321   -1.725115   -0.449070
  H      1.684097   -1.205982   -0.288835
  H      1.141293   -2.606216   -0.711642
  O     -0.747768    0.360344   -1.643972
  H     -0.278263   -0.475523   -1.497806
  H     -1.624140    0.215570   -1.240389
  O      0.590979    1.752441    0.193765
  H      0.065629    1.367509   -0.557470
  H      0.500736    2.706455    0.135798
  O     -0.678616   -0.448184    1.665904
  H     -0.189359   -1.066813    1.101280
  H     -0.262345    0.405500    1.474909
  O      2.791070    0.112441    0.083751
  H      2.148464    0.847220    0.156032
  H      3.273124    0.100172    0.914153
  O     -2.891926    0.012423    0.091371
  H     -2.247963   -0.225372    0.790584
  H     -3.640341   -0.579250    0.191824

 Multiplicity           Mult            ....    1
 Number of Electrons    NEL             ....   60
 Basis Dimension        Dim             ....  552

ORBITAL ENERGIES
----------------

  NO   OCC          E(Eh)            E(eV)
   0   2.0000     -19.743690      -537.2531
   1   2.0000     -19.740170      -537.1573
   2   2.0000     -19.739870      -537.1492
   3   2.0000     -19.722207      -536.6685
   4   2.0000     -19.720595      -536.6247
   5   2.0000     -19.716264      -536.5068
   6   2.0000      -1.177224       -32.0339
   7   2.0000      -1.164727       -31.6938
   8   2.0000      -1.159115       -31.5411
   9   2.0000      -1.150367       -31.3031
  10   2.0000      -1.142112       -31.0784
  11   2.0000      -1.132547       -30.8182
  12   2.0000      -0.640829       -17.4378
  13   2.0000      -0.627683       -17.0801
  14   2.0000      -0.617379       -16.7997
  15   2.0000      -0.613649       -16.6982
  16   2.0000      -0.598017       -16.2729
  17   2.0000      -0.594200       -16.1690
  18   2.0000      -0.525766       -14.3068
  19   2.0000      -0.494422       -13.4539
  20   2.0000      -0.487568       -13.2674
  21   2.0000      -0.471263       -12.8237
  22   2.0000      -0.468768       -12.7558
  23   2.0000      -0.445256       -12.1160
  24   2.0000      -0.415325       -11.3016
  25   2.0000      -0.412112       -11.2141
  26   2.0000      -0.408178       -11.1071
  27   2.0000      -0.395085       -10.7508
  28   2.0000      -0.388201       -10.5635
  29   2.0000      -0.385040       -10.4775
  30   0.0000      -0.003142        -0.0855
  31   0.0000       0.013398         0.3646
  32   0.0000       0.016149         0.4394
  33   0.0000       0.026728         0.7273
  34   0.0000       0.041789         1.1371

Dispersion correction            ... done

MULLIKEN ATOMIC CHARGES
-----------------------
   0 O :   -0.508778
   1 H :    0.329429
   2 H :    0.117624
   3 O :   -0.507633
   4 H :    0.271042
   5 H :    0.292983
   6 O :   -0.464675
   7 H :    0.329672
   8 H :    0.105366
   9 O :   -0.581674
  10 H :    0.318041
  11 H :    0.311938
  12 O :   -0.428397
  13 H :    0.297663
  14 H :    0.144686
  15 O :   -0.460374
  16 H :    0.279480
  17 H :    0.153607
Sum of atomic charges:    0.0000000

LOEWDIN ATOMIC CHARGES
----------------------
   0 O :    1.126589
   1 H :   -0.646151
   2 H :   -0.443735
   3 O :    1.136685
   4 H :   -0.574407
   5 H :   -0.618729
   6 O :    1.132502
   7 H :   -0.652029
   8 H :   -0.432658
   9 O :    1.120555
  10 H :   -0.592356
  11 H :   -0.571014
  12 O :    1.120173
  13 H :   -0.641140
  14 H :   -0.451614
  15 O :    1.103371
  16 H :   -0.647901
  17 H :   -0.468140

  Mayer bond orders larger than 0.100000
B(  0-O ,  1-H ) :   0.7902 B(  0-O ,  2-H ) :   1.0436 B(  3-O ,  4-H ) :   0.8673
B(  3-O ,  5-H ) :   0.8597 B(  3-O ,  7-H ) :   0.1158 B(  6-O ,  7-H ) :   0.7459
B(  6-O ,  8-H ) :   1.0514 B(  9-O , 10-H ) :   0.8208 B(  9-O , 11-H ) :   0.8371
B( 12-O , 13-H ) :   0.8145 B( 12-O , 14-H ) :   1.0508 B( 15-O , 16-H ) :   0.8444
B( 15-O , 17-H ) :   1.0374

MP2 TOTAL ENERGY:     -458.558174944 Eh
Dispersion correction           -0.006849616
FINAL SINGLE POINT ENERGY      -458.565024560244

DIPOLE MOMENT
-------------
                                X             Y             Z
Electronic contribution:     -0.03204       0.15504      -0.15435
Nuclear contribution   :      0.59332      -0.53723       0.48688
                        -----------------------------------------
Total Dipole Moment    :      0.56128      -0.38219       0.33253
                        -----------------------------------------
Magnitude (a.u.)       :      0.75609
Magnitude (Debye)      :      1.92184

VIBRATIONAL FREQUENCIES
-----------------------

Scaling factor for frequencies =  1.000000000 (already applied!)

   0:         0.00 cm**-1
   1:         0.00 cm**-1
   2:         0.00 cm**-1
   3:         0.00 cm**-1
   4:         0.00 cm**-1
   5:         0.00 cm**-1
   6:        54.39 cm**-1
   7:        61.33 cm**-1
   8:        77.51 cm**-1
   9:       105.16 cm**-1
  10:       120.55 cm**-1
  11:       150.98 cm**-1
  12:       182.64 cm**-1
  13:       194.73 cm**-1
  14:       212.39 cm**-1
  15:       227.16 cm**-1
  16:       236.64 cm**-1
  17:       240.19 cm**-1
  18:       250.28 cm**-1
  19:       285.99 cm**-1
  20:       290.38 cm**-1
  21:       297.81 cm**-1
  22:       398.64 cm**-1
  23:       413.33 cm**-1
  24:       454.45 cm**-1
  25:       470.69 cm**-1
  26:       487.45 cm**-1
  27:       553.98 cm**-1
  28:       572.23 cm**-1
  29:       642.77 cm**-1
  30:       701.01 cm**-1
  31:       742.18 cm**-1
  32:       799.70 cm**-1
  33:       816.02 cm**-1
  34:       877.73 cm**-1
  35:      1004.85 cm**-1
  36:      1649.18 cm**-1
  37:      1657.10 cm**-1
  38:      1670.49 cm**-1
  39:      1684.64 cm**-1
  40:      1695.87 cm**-1
  41:      1712.02 cm**-1
  42:      3199.71 cm**-1
  43:      3420.18 cm**-1
  44:      3475.79 cm**-1
  45:      3522.23 cm**-1
  46:      3586.16 cm**-1
  47:      3677.11 cm**-1
  48:      3708.87 cm**-1
  49:      3746.12 cm**-1
  50:      3877.44 cm**-1
  51:      3879.69 cm**-1
  52:      3880.55 cm**-1
  53:      3889.04 cm**-1

IR SPECTRUM
-----------

 Mode    freq (cm**-1)   T**2         TX         TY         TZ
-------------------------------------------------------------------
   6:        54.39    0.703281  (  0.805266   0.149349  -0.180339)
   7:        61.33    2.641388  (  1.255807  -0.890400  -0.521080)
   8:        77.51    0.387764  (  0.018991   0.414914  -0.463950)
   9:       105.16    3.311949  ( -1.337101   0.309300   1.195175)
  10:       120.55    0.041977  (  0.128600  -0.098929  -0.125108)
  11:       150.98    2.403951  (  1.506323  -0.366438  -0.025783)
  12:       182.64   35.672055  ( -1.361525   4.141017   4.082926)
  13:       194.73   51.041790  ( -4.820669   4.742787   2.304106)
  14:       212.39   28.410051  (  5.031517  -1.141542  -1.338196)
  15:       227.16    9.982589  ( -2.723765  -1.569782  -0.315404)
  16:       236.64   26.014385  ( -3.559539   3.159187  -1.834013)
  17:       240.19   25.743106  (  0.361004  -2.305906   4.505061)
  18:       250.28   16.536945  ( -3.684409  -1.632475  -0.545070)
  19:       285.99  102.002328  (  8.637881   4.886288   1.874440)
  20:       290.38   52.999763  (  5.914293   0.737604  -4.180531)
  21:       297.81   65.737162  (  3.361684  -0.521082  -7.359668)
  22:       398.64   25.135894  ( -2.040234  -1.765460  -4.225694)
  23:       413.33   95.330994  ( -9.229369   2.916895  -1.281194)
  24:       454.45   28.640510  ( -4.203286  -3.230298   0.733531)
  25:       470.69   45.023448  (  2.706938  -1.104376   6.039560)
  26:       487.45   38.590337  (  1.121139  -5.170917   3.254996)
  27:       553.98  194.963171  (  4.262460  12.229013   5.219756)
  28:       572.23   85.971807  (  8.869762  -2.447783  -1.143454)
  29:       642.77  198.147574  (  5.797216  -2.898283  12.495592)
  30:       701.01   19.260684  (  1.711943   3.472710   2.066451)
  31:       742.18  228.346690  (  8.932799   6.105459  10.548704)
  32:       799.70  186.748803  ( -3.924983  -4.609762  12.251261)
  33:       816.02  113.623530  (-10.028227   2.563680   2.546711)
  34:       877.73   21.397127  ( -2.822647   0.789605   3.578591)
  35:      1004.85   73.082765  ( -5.128607  -0.649952   6.808650)
  36:      1649.18  118.904713  (  5.746737   0.557433  -9.250351)
  37:      1657.10   72.447205  ( -2.875578  -7.770953   1.946931)
  38:      1670.49   62.064186  ( -6.178021   4.278453  -2.364546)
  39:      1684.64   55.294638  ( -1.190788  -7.059382   2.010420)
  40:      1695.87   16.235948  ( -3.385425   1.053003   1.914687)
  41:      1712.02   50.285976  ( -4.405035  -1.378110   5.383535)
  42:      3199.71  782.925220  ( 17.435786  13.616435  17.132171)
  43:      3420.18  711.723837  (-15.000702 -20.991014  -6.788235)
  44:      3475.79  571.668730  (-18.779178   2.420913 -14.599671)
  45:      3522.23  562.513367  (-21.824594   9.284271   0.052870)
  46:      3586.16  494.401453  (-19.732484  -2.818817   9.853163)
  47:      3677.11  143.789604  ( -1.991957  -2.115174  11.633905)
  48:      3708.87  314.649487  (-16.061942   7.483348   0.814255)
  49:      3746.12  457.242276  (  3.239755 -20.922300  -3.000605)
  50:      3877.44   63.881051  (  0.508556  -7.961099  -0.493279)
  51:      3879.69   76.392903  ( -6.576849   3.191800  -4.790655)
  52:      3880.55   93.279637  (  3.158322   8.303326   3.789382)
  53:      3889.04   78.150269  ( -8.078433  -2.854033  -2.178000)

--------------------------
THERMOCHEMISTRY AT 298.15K
--------------------------

Temperature         ... 298.15 K
Pressure            ... 1.00 atm
Total Mass          ... 108.09 AMU

Throughout the following assumptions are being made:
  (1) The electronic state is orbitally nondegenerate
  (2) There are no thermally accessible electronically excited states
  (3) Hindered rotations indicated by low frequency modes are not
      treated as such but are treated as vibrations and this may
      cause some error
  (4) All equations used are the standard statistical mechanics
      equations for an ideal gas
  (5) All vibrations are strictly harmonic

freq.      54.39  E(vib)   ...       0.52
freq.      61.33  E(vib)   ...       0.51
freq.      77.51  E(vib)   ...       0.49
freq.     105.16  E(vib)   ...       0.45
freq.     120.55  E(vib)   ...       0.44
freq.     150.98  E(vib)   ...       0.40
freq.     182.64  E(vib)   ...       0.37
freq.     194.73  E(vib)   ...       0.36
freq.     212.39  E(vib)   ...       0.34
freq.     227.16  E(vib)   ...       0.33
freq.     236.64  E(vib)   ...       0.32
freq.     240.19  E(vib)   ...       0.31
freq.     250.28  E(vib)   ...       0.31
freq.     285.99  E(vib)   ...       0.27
freq.     290.38  E(vib)   ...       0.27
freq.     297.81  E(vib)   ...       0.27
freq.     398.64  E(vib)   ...       0.19
freq.     413.33  E(vib)   ...       0.19
freq.     454.45  E(vib)   ...       0.16
freq.     470.69  E(vib)   ...       0.15
freq.     487.45  E(vib)   ...       0.15
freq.     553.98  E(vib)   ...       0.12
freq.     572.23  E(vib)   ...       0.11
freq.     642.77  E(vib)   ...       0.09
freq.     701.01  E(vib)   ...       0.07
freq.     742.18  E(vib)   ...       0.06
freq.     799.70  E(vib)   ...       0.05
freq.     816.02  E(vib)   ...       0.05
freq.     877.73  E(vib)   ...       0.04
freq.    1004.85  E(vib)   ...       0.02
freq.    1649.18  E(vib)   ...       0.00
freq.    1657.10  E(vib)   ...       0.00
freq.    1670.49  E(vib)   ...       0.00
freq.    1684.64  E(vib)   ...       0.00
freq.    1695.87  E(vib)   ...       0.00
freq.    1712.02  E(vib)   ...       0.00
freq.    3199.71  E(vib)   ...       0.00
freq.    3420.18  E(vib)   ...       0.00
freq.    3475.79  E(vib)   ...       0.00
freq.    3522.23  E(vib)   ...       0.00
freq.    3586.16  E(vib)   ...       0.00
freq.    3677.11  E(vib)   ...       0.00
freq.    3708.87  E(vib)   ...       0.00
freq.    3746.12  E(vib)   ...       0.00
freq.    3877.44  E(vib)   ...       0.00
freq.    3879.69  E(vib)   ...       0.00
freq.    3880.55  E(vib)   ...       0.00
freq.    3889.04  E(vib)   ...       0.00

------------
INNER ENERGY
------------

The inner energy is: U= E(el) + E(ZPE) + E(vib) + E(rot) + E(trans)
    E(el)   - is the total energy from the electronic structure calculation
              = E(kin-el) + E(nuc-el) + E(el-el) + E(nuc-nuc)
    E(ZPE)  - the the zero temperature vibrational energy from the frequency calculation
    E(vib)  - the the finite temperature correction to E(ZPE) due to population
              of excited vibrational states
    E(rot)  - is the rotational thermal energy
    E(trans)- is the translational thermal energy

Summary of contributions to the inner energy U:
Electronic energy                ...   -458.56502457 Eh
Zero point energy                ...      0.15002956 Eh      94.14 kcal/mol
Thermal vibrational correction   ...      0.01180111 Eh       7.41 kcal/mol
Thermal rotational correction    ...      0.00141627 Eh       0.89 kcal/mol
Thermal translational correction ...      0.00141627 Eh       0.89 kcal/mol
-----------------------------------------------------------------------
Total thermal energy                   -458.40036135 Eh

Summary of corrections to the electronic energy:
(perhaps to be used in another calculation)
Total thermal correction                  0.01463366 Eh       9.18 kcal/mol
Non-thermal (ZPE) correction              0.15002956 Eh      94.14 kcal/mol
-----------------------------------------------------------------------
Total correction                          0.16466322 Eh     103.33 kcal/mol

--------
ENTHALPY
--------

The enthalpy is H = U + kB*T
                kB is Boltzmann's constant
Total free energy                 ...   -458.40036135 Eh
Thermal Enthalpy correction       ...      0.00094421 Eh       0.59 kcal/mol
-----------------------------------------------------------------------
Total Enthalpy                    ...   -458.39941714 Eh

Note: Only C1 symmetry has been detected, increase convergence thresholds
      if your molecule has a higher symmetry. Symmetry factor of 1.0 is
      used for the rotational entropy correction.

Note: Rotational entropy computed according to Herzberg
Infrared and Raman Spectra, Chapter V,1, Van Nostrand Reinhold, 1945
Point Group:  C1, Symmetry Number:   1
Rotational constants in cm-1:     0.075288     0.038776     0.036953

Vibrational entropy computed according to the QRRHO of S. Grimme
Chem.Eur.J. 2012 18 9955

-------
ENTROPY
-------

The entropy contributions are T*S = T*(S(el)+S(vib)+S(rot)+S(trans))
     S(el)   - electronic entropy
     S(vib)  - vibrational entropy
     S(rot)  - rotational entropy
     S(trans)- translational entropy
The entropies will be listed as mutliplied by the temperature to get
units of energy

Electronic entropy                ...      0.00000000 Eh      0.00 kcal/mol
Vibrational entropy               ...      0.02091310 Eh     13.12 kcal/mol
Rotational entropy                ...      0.01382312 Eh      8.67 kcal/mol
Translational entropy             ...      0.01898142 Eh     11.91 kcal/mol
-----------------------------------------------------------------------
Final entropy term                ...      0.05371764 Eh     33.71 kcal/mol

In case the symmetry of your molecule has not been determined correctly
or in case you have a reason to use a different symmetry number we print
out the resulting rotational entropy values for sn=1,12 :
 --------------------------------------------------------
|  sn= 1 | S(rot)=       0.01382312 Eh      8.67 kcal/mol|
|  sn= 2 | S(rot)=       0.01316866 Eh      8.26 kcal/mol|
|  sn= 3 | S(rot)=       0.01278583 Eh      8.02 kcal/mol|
|  sn= 4 | S(rot)=       0.01251421 Eh      7.85 kcal/mol|
|  sn= 5 | S(rot)=       0.01230352 Eh      7.72 kcal/mol|
|  sn= 6 | S(rot)=       0.01213138 Eh      7.61 kcal/mol|
|  sn= 7 | S(rot)=       0.01198583 Eh      7.52 kcal/mol|
|  sn= 8 | S(rot)=       0.01185975 Eh      7.44 kcal/mol|
|  sn= 9 | S(rot)=       0.01174854 Eh      7.37 kcal/mol|
|  sn=10 | S(rot)=       0.01164906 Eh      7.31 kcal/mol|
|  sn=11 | S(rot)=       0.01155907 Eh      7.25 kcal/mol|
|  sn=12 | S(rot)=       0.01147692 Eh      7.20 kcal/mol|
 --------------------------------------------------------

                             ****ORCA TERMINATED NORMALLY****
TOTAL RUN TIME: 0 days 3 hours 57 minutes 9 seconds 898 msec
