                         Program Version 4.2.0 -  RELEASE  -
|  1> #
|  2> # 09_H2O_6_prism b2-plyp/aug-cc-pvt(+d)z
|  3> #
|  4> ! rijk ri-b2plyp d3bj aug-cc-pvt(+d)z def2/jk def2-tzvp/c grid4 nofinalgrid opt xyzfile numfreq
|  5>
|  6> *xyz 0 1
|  7> O	-1.511782	-0.232325	1.434522
|  8> H	-0.6139	-0.631798	1.542476
|  9> H	-2.015087	-0.484249	2.21021
| 10> O	-1.744551	-0.350365	-1.322141
| 11> H	-1.89002	-0.475498	-0.368433
| 12> H	-2.508917	-0.726304	-1.761973
| 13> O	-0.568902	2.010658	-0.079448
| 14> H	-0.9578	1.52123	0.658817
| 15> H	-0.991476	1.598457	-0.84212
| 16> O	0.972064	-1.194842	1.413465
| 17> H	0.986177	-1.536208	0.500658
| 18> H	1.544338	-0.420911	1.334663
| 19> O	0.983916	-1.359847	-1.372465
| 20> H	0.077993	-1.073694	-1.552782
| 21> H	1.480193	-0.535792	-1.283351
| 22> O	2.003223	1.063257	-0.092296
| 23> H	1.144078	1.530799	-0.098089
| 24> H	2.67269	1.741694	-0.193152
| 25> *
| 26>
| 27> %maxcore 5000
| 28>
| 29> %pal
| 30> nprocs 24
| 31> end
| 32>
| 33>
| 34>                          ****END OF INPUT****
 Total Charge           Charge          ....    0
 Multiplicity           Mult            ....    1
 Number of Electrons    NEL             ....   60
Dispersion correction            ... done
MP2 TOTAL ENERGY:     -458.557854617 Eh
Dispersion correction           -0.007065930
FINAL SINGLE POINT ENERGY      -458.564920547075
Dispersion correction            ... done
MP2 TOTAL ENERGY:     -458.557977788 Eh
Dispersion correction           -0.007037902
FINAL SINGLE POINT ENERGY      -458.565015690264
FINAL SINGLE POINT ENERGY      -458.565029259863
Dispersion correction            ... done
MP2 TOTAL ENERGY:     -458.557969910 Eh
Dispersion correction           -0.007072182
FINAL SINGLE POINT ENERGY      -458.565042091930
                    ***********************HURRAY********************

CARTESIAN COORDINATES (ANGSTROEM)
---------------------------------
  O     -1.506699   -0.235567    1.434654
  H     -0.602842   -0.637175    1.543279
  H     -2.018560   -0.482823    2.207998
  O     -1.742592   -0.355229   -1.321677
  H     -1.886377   -0.479851   -0.364181
  H     -2.505368   -0.729918   -1.768468
  O     -0.563820    2.012903   -0.080851
  H     -0.953136    1.521996    0.659617
  H     -0.986834    1.600332   -0.845658
  O      0.969041   -1.193697    1.413401
  H      0.981779   -1.536514    0.496971
  H      1.542256   -0.417632    1.335533
  O      0.976609   -1.359020   -1.370672
  H      0.067748   -1.072849   -1.551234
  H      1.475311   -0.533748   -1.281733
  O      2.000107    1.066965   -0.090412
  H      1.137283    1.537274   -0.097434
  H      2.678332    1.738815   -0.190571

 Multiplicity           Mult            ....    1
 Number of Electrons    NEL             ....   60
 Basis Dimension        Dim             ....  552

ORBITAL ENERGIES
----------------

  NO   OCC          E(Eh)            E(eV)
   0   2.0000     -19.749563      -537.4129
   1   2.0000     -19.743709      -537.2536
   2   2.0000     -19.733695      -536.9811
   3   2.0000     -19.733491      -536.9756
   4   2.0000     -19.722348      -536.6724
   5   2.0000     -19.713252      -536.4249
   6   2.0000      -1.180187       -32.1145
   7   2.0000      -1.166657       -31.7464
   8   2.0000      -1.162779       -31.6408
   9   2.0000      -1.153898       -31.3992
  10   2.0000      -1.144060       -31.1315
  11   2.0000      -1.132990       -30.8302
  12   2.0000      -0.643373       -17.5071
  13   2.0000      -0.627255       -17.0685
  14   2.0000      -0.621861       -16.9217
  15   2.0000      -0.607735       -16.5373
  16   2.0000      -0.597251       -16.2520
  17   2.0000      -0.594120       -16.1668
  18   2.0000      -0.518474       -14.1084
  19   2.0000      -0.511883       -13.9291
  20   2.0000      -0.488588       -13.2951
  21   2.0000      -0.480191       -13.0667
  22   2.0000      -0.469476       -12.7751
  23   2.0000      -0.445678       -12.1275
  24   2.0000      -0.418045       -11.3756
  25   2.0000      -0.415916       -11.3176
  26   2.0000      -0.405152       -11.0248
  27   2.0000      -0.402950       -10.9648
  28   2.0000      -0.395116       -10.7517
  29   2.0000      -0.378904       -10.3105
  30   0.0000      -0.004886        -0.1330
  31   0.0000       0.012034         0.3275
  32   0.0000       0.016402         0.4463
  33   0.0000       0.035961         0.9786
  34   0.0000       0.043040         1.1712

Dispersion correction            ... done

MULLIKEN ATOMIC CHARGES
-----------------------
   0 O :   -0.503989
   1 H :    0.330030
   2 H :    0.129886
   3 O :   -0.499236
   4 H :    0.317946
   5 H :    0.129658
   6 O :   -0.522371
   7 H :    0.303235
   8 H :    0.251241
   9 O :   -0.493571
  10 H :    0.309912
  11 H :    0.245196
  12 O :   -0.554243
  13 H :    0.320879
  14 H :    0.266318
  15 O :   -0.512809
  16 H :    0.350667
  17 H :    0.131252
Sum of atomic charges:    0.0000000

LOEWDIN ATOMIC CHARGES
----------------------
   0 O :    1.130551
   1 H :   -0.661217
   2 H :   -0.438022
   3 O :    1.118141
   4 H :   -0.622696
   5 H :   -0.448710
   6 O :    1.125794
   7 H :   -0.577209
   8 H :   -0.534660
   9 O :    1.133431
  10 H :   -0.598451
  11 H :   -0.536733
  12 O :    1.107184
  13 H :   -0.611369
  14 H :   -0.577995
  15 O :    1.109049
  16 H :   -0.658395
  17 H :   -0.458693

  Mayer bond orders larger than 0.100000
B(  0-O ,  1-H ) :   0.7420 B(  0-O ,  2-H ) :   1.0284 B(  1-H ,  9-O ) :   0.1328
B(  3-O ,  4-H ) :   0.8037 B(  3-O ,  5-H ) :   1.0350 B(  6-O ,  7-H ) :   0.8430
B(  6-O ,  8-H ) :   0.9156 B(  9-O , 10-H ) :   0.8206 B(  9-O , 11-H ) :   0.9106
B( 12-O , 13-H ) :   0.8376 B( 12-O , 14-H ) :   0.8920 B( 15-O , 16-H ) :   0.7721
B( 15-O , 17-H ) :   1.0276

MP2 TOTAL ENERGY:     -458.557969914 Eh
Dispersion correction           -0.007073719
FINAL SINGLE POINT ENERGY      -458.565043633365

DIPOLE MOMENT
-------------
                                X             Y             Z
Electronic contribution:      0.17786      -0.11681       0.00198
Nuclear contribution   :     -1.11178       0.52871       0.14586
                        -----------------------------------------
Total Dipole Moment    :     -0.93392       0.41190       0.14784
                        -----------------------------------------
Magnitude (a.u.)       :      1.03137
Magnitude (Debye)      :      2.62153

VIBRATIONAL FREQUENCIES
-----------------------

Scaling factor for frequencies =  1.000000000 (already applied!)

   0:         0.00 cm**-1
   1:         0.00 cm**-1
   2:         0.00 cm**-1
   3:         0.00 cm**-1
   4:         0.00 cm**-1
   5:         0.00 cm**-1
   6:        59.39 cm**-1
   7:        74.35 cm**-1
   8:        79.00 cm**-1
   9:        82.70 cm**-1
  10:        98.15 cm**-1
  11:       145.01 cm**-1
  12:       171.12 cm**-1
  13:       181.03 cm**-1
  14:       212.11 cm**-1
  15:       216.38 cm**-1
  16:       238.51 cm**-1
  17:       247.88 cm**-1
  18:       258.17 cm**-1
  19:       280.10 cm**-1
  20:       292.50 cm**-1
  21:       366.72 cm**-1
  22:       378.14 cm**-1
  23:       433.70 cm**-1
  24:       443.40 cm**-1
  25:       475.39 cm**-1
  26:       506.81 cm**-1
  27:       546.83 cm**-1
  28:       565.01 cm**-1
  29:       630.36 cm**-1
  30:       648.32 cm**-1
  31:       688.96 cm**-1
  32:       728.36 cm**-1
  33:       841.43 cm**-1
  34:       884.54 cm**-1
  35:      1026.03 cm**-1
  36:      1645.82 cm**-1
  37:      1658.00 cm**-1
  38:      1664.25 cm**-1
  39:      1687.27 cm**-1
  40:      1701.84 cm**-1
  41:      1718.70 cm**-1
  42:      3183.82 cm**-1
  43:      3423.74 cm**-1
  44:      3533.44 cm**-1
  45:      3556.46 cm**-1
  46:      3674.85 cm**-1
  47:      3694.37 cm**-1
  48:      3746.30 cm**-1
  49:      3761.83 cm**-1
  50:      3785.29 cm**-1
  51:      3878.45 cm**-1
  52:      3879.77 cm**-1
  53:      3882.50 cm**-1

IR SPECTRUM
-----------

 Mode    freq (cm**-1)   T**2         TX         TY         TZ
-------------------------------------------------------------------
   6:        59.39    1.773479  ( -0.492773  -0.032128  -1.236779)
   7:        74.35    0.218001  ( -0.141385  -0.112387  -0.430558)
   8:        79.00    1.013749  (  0.255289  -0.117569  -0.966827)
   9:        82.70    1.134774  (  0.090720  -0.221737   1.037967)
  10:        98.15    0.639564  (  0.735339   0.263489  -0.171504)
  11:       145.01    1.153541  (  0.938774  -0.455055  -0.255284)
  12:       171.12   10.594152  (  2.088358   1.130725   2.225842)
  13:       181.03    2.741973  ( -1.519907  -0.153303  -0.639026)
  14:       212.11    8.699817  ( -1.789525   1.619067  -1.695890)
  15:       216.38   25.561327  (  3.867130  -2.509099   2.076309)
  16:       238.51   36.142052  ( -2.817887  -0.661070   5.269208)
  17:       247.88   46.108813  ( -3.839657   5.122714   2.263549)
  18:       258.17   43.625875  ( -0.566864  -1.005061  -6.503414)
  19:       280.10   51.354698  (  2.238696   6.806863  -0.097738)
  20:       292.50   23.529930  ( -4.423696   1.988848  -0.073015)
  21:       366.72   51.075342  ( -5.070648   4.697624  -1.815543)
  22:       378.14    6.887426  (  1.163566   1.680091   1.646461)
  23:       433.70   50.118087  ( -2.952039   3.672640   5.283490)
  24:       443.40   41.944405  (  4.552596  -2.496532   3.871124)
  25:       475.39   41.059773  ( -1.168159   1.327448  -6.158982)
  26:       506.81   29.666129  (  5.012592  -1.260574  -1.717848)
  27:       546.83  213.437749  ( 14.047147   3.699916   1.557572)
  28:       565.01   23.799243  (  0.185965   4.549324   1.751660)
  29:       630.36  308.651615  ( -0.557654  -3.169651 -17.271188)
  30:       648.32  129.472863  ( -2.668291   4.766863   9.981488)
  31:       688.96  185.899201  (  7.959738 -11.023018  -1.017273)
  32:       728.36  255.624920  ( -9.377363  11.969786  -4.941074)
  33:       841.43   36.869250  (  4.457219  -3.658579   1.901907)
  34:       884.54   54.908264  ( -3.060264   2.305576   6.342505)
  35:      1026.03   66.053590  ( -3.027452  -6.184225  -4.317811)
  36:      1645.82  168.671482  (  8.086707  10.154911   0.392963)
  37:      1658.00   56.482498  (  2.708568  -6.642059   2.242589)
  38:      1664.25   74.035875  ( -2.759350  -1.949722   7.913308)
  39:      1687.27   18.183571  (  3.461785  -2.428646   0.548899)
  40:      1701.84  119.091328  (  3.511856   9.225712  -4.652358)
  41:      1718.70   49.590854  (  2.772364   0.683612  -6.437199)
  42:      3183.82  897.421152  ( 28.235377  -9.895751  -1.502917)
  43:      3423.74  775.268205  ( 26.680848  -7.913524  -0.881308)
  44:      3533.44  179.108227  ( -5.707815  -0.282645 -12.101619)
  45:      3556.46  595.340728  (  2.047958  -2.404396 -24.194327)
  46:      3674.85  186.761164  (-10.952409   7.868786   2.210907)
  47:      3694.37  232.724769  ( -5.716578 -10.427425   9.555852)
  48:      3746.30   74.092929  ( -7.633867   2.937569  -2.680986)
  49:      3761.83  425.145069  ( 15.875470  13.077136   1.450180)
  50:      3785.29  247.261444  (  5.503758   3.787933  14.234523)
  51:      3878.45   51.928834  (  4.733073  -0.264146  -5.427438)
  52:      3879.77   88.755293  (  8.919976   2.233740  -2.049322)
  53:      3882.50   94.247312  ( -5.652161  -2.328316  -7.541839)

--------------------------
THERMOCHEMISTRY AT 298.15K
--------------------------

Temperature         ... 298.15 K
Pressure            ... 1.00 atm
Total Mass          ... 108.09 AMU

Throughout the following assumptions are being made:
  (1) The electronic state is orbitally nondegenerate
  (2) There are no thermally accessible electronically excited states
  (3) Hindered rotations indicated by low frequency modes are not
      treated as such but are treated as vibrations and this may
      cause some error
  (4) All equations used are the standard statistical mechanics
      equations for an ideal gas
  (5) All vibrations are strictly harmonic

freq.      59.39  E(vib)   ...       0.51
freq.      74.35  E(vib)   ...       0.49
freq.      79.00  E(vib)   ...       0.49
freq.      82.70  E(vib)   ...       0.48
freq.      98.15  E(vib)   ...       0.46
freq.     145.01  E(vib)   ...       0.41
freq.     171.12  E(vib)   ...       0.38
freq.     181.03  E(vib)   ...       0.37
freq.     212.11  E(vib)   ...       0.34
freq.     216.38  E(vib)   ...       0.34
freq.     238.51  E(vib)   ...       0.32
freq.     247.88  E(vib)   ...       0.31
freq.     258.17  E(vib)   ...       0.30
freq.     280.10  E(vib)   ...       0.28
freq.     292.50  E(vib)   ...       0.27
freq.     366.72  E(vib)   ...       0.22
freq.     378.14  E(vib)   ...       0.21
freq.     433.70  E(vib)   ...       0.17
freq.     443.40  E(vib)   ...       0.17
freq.     475.39  E(vib)   ...       0.15
freq.     506.81  E(vib)   ...       0.14
freq.     546.83  E(vib)   ...       0.12
freq.     565.01  E(vib)   ...       0.11
freq.     630.36  E(vib)   ...       0.09
freq.     648.32  E(vib)   ...       0.08
freq.     688.96  E(vib)   ...       0.07
freq.     728.36  E(vib)   ...       0.06
freq.     841.43  E(vib)   ...       0.04
freq.     884.54  E(vib)   ...       0.04
freq.    1026.03  E(vib)   ...       0.02
freq.    1645.82  E(vib)   ...       0.00
freq.    1658.00  E(vib)   ...       0.00
freq.    1664.25  E(vib)   ...       0.00
freq.    1687.27  E(vib)   ...       0.00
freq.    1701.84  E(vib)   ...       0.00
freq.    1718.70  E(vib)   ...       0.00
freq.    3183.82  E(vib)   ...       0.00
freq.    3423.74  E(vib)   ...       0.00
freq.    3533.44  E(vib)   ...       0.00
freq.    3556.46  E(vib)   ...       0.00
freq.    3674.85  E(vib)   ...       0.00
freq.    3694.37  E(vib)   ...       0.00
freq.    3746.30  E(vib)   ...       0.00
freq.    3761.83  E(vib)   ...       0.00
freq.    3785.29  E(vib)   ...       0.00
freq.    3878.45  E(vib)   ...       0.00
freq.    3879.77  E(vib)   ...       0.00
freq.    3882.50  E(vib)   ...       0.00

------------
INNER ENERGY
------------

The inner energy is: U= E(el) + E(ZPE) + E(vib) + E(rot) + E(trans)
    E(el)   - is the total energy from the electronic structure calculation
              = E(kin-el) + E(nuc-el) + E(el-el) + E(nuc-nuc)
    E(ZPE)  - the the zero temperature vibrational energy from the frequency calculation
    E(vib)  - the the finite temperature correction to E(ZPE) due to population
              of excited vibrational states
    E(rot)  - is the rotational thermal energy
    E(trans)- is the translational thermal energy

Summary of contributions to the inner energy U:
Electronic energy                ...   -458.56504364 Eh
Zero point energy                ...      0.15007906 Eh      94.18 kcal/mol
Thermal vibrational correction   ...      0.01187941 Eh       7.45 kcal/mol
Thermal rotational correction    ...      0.00141627 Eh       0.89 kcal/mol
Thermal translational correction ...      0.00141627 Eh       0.89 kcal/mol
-----------------------------------------------------------------------
Total thermal energy                   -458.40025264 Eh

Summary of corrections to the electronic energy:
(perhaps to be used in another calculation)
Total thermal correction                  0.01471195 Eh       9.23 kcal/mol
Non-thermal (ZPE) correction              0.15007906 Eh      94.18 kcal/mol
-----------------------------------------------------------------------
Total correction                          0.16479101 Eh     103.41 kcal/mol

--------
ENTHALPY
--------

The enthalpy is H = U + kB*T
                kB is Boltzmann's constant
Total free energy                 ...   -458.40025264 Eh
Thermal Enthalpy correction       ...      0.00094421 Eh       0.59 kcal/mol
-----------------------------------------------------------------------
Total Enthalpy                    ...   -458.39930843 Eh

Note: Only C1 symmetry has been detected, increase convergence thresholds
      if your molecule has a higher symmetry. Symmetry factor of 1.0 is
      used for the rotational entropy correction.

Note: Rotational entropy computed according to Herzberg
Infrared and Raman Spectra, Chapter V,1, Van Nostrand Reinhold, 1945
Point Group:  C1, Symmetry Number:   1
Rotational constants in cm-1:     0.057165     0.047362     0.045720

Vibrational entropy computed according to the QRRHO of S. Grimme
Chem.Eur.J. 2012 18 9955

-------
ENTROPY
-------

The entropy contributions are T*S = T*(S(el)+S(vib)+S(rot)+S(trans))
     S(el)   - electronic entropy
     S(vib)  - vibrational entropy
     S(rot)  - rotational entropy
     S(trans)- translational entropy
The entropies will be listed as mutliplied by the temperature to get
units of energy

Electronic entropy                ...      0.00000000 Eh      0.00 kcal/mol
Vibrational entropy               ...      0.02108714 Eh     13.23 kcal/mol
Rotational entropy                ...      0.01375819 Eh      8.63 kcal/mol
Translational entropy             ...      0.01898142 Eh     11.91 kcal/mol
-----------------------------------------------------------------------
Final entropy term                ...      0.05382675 Eh     33.78 kcal/mol

In case the symmetry of your molecule has not been determined correctly
or in case you have a reason to use a different symmetry number we print
out the resulting rotational entropy values for sn=1,12 :
 --------------------------------------------------------
|  sn= 1 | S(rot)=       0.01375819 Eh      8.63 kcal/mol|
|  sn= 2 | S(rot)=       0.01310373 Eh      8.22 kcal/mol|
|  sn= 3 | S(rot)=       0.01272090 Eh      7.98 kcal/mol|
|  sn= 4 | S(rot)=       0.01244928 Eh      7.81 kcal/mol|
|  sn= 5 | S(rot)=       0.01223859 Eh      7.68 kcal/mol|
|  sn= 6 | S(rot)=       0.01206645 Eh      7.57 kcal/mol|
|  sn= 7 | S(rot)=       0.01192090 Eh      7.48 kcal/mol|
|  sn= 8 | S(rot)=       0.01179482 Eh      7.40 kcal/mol|
|  sn= 9 | S(rot)=       0.01168361 Eh      7.33 kcal/mol|
|  sn=10 | S(rot)=       0.01158413 Eh      7.27 kcal/mol|
|  sn=11 | S(rot)=       0.01149414 Eh      7.21 kcal/mol|
|  sn=12 | S(rot)=       0.01141199 Eh      7.16 kcal/mol|
 --------------------------------------------------------

                             ****ORCA TERMINATED NORMALLY****
TOTAL RUN TIME: 0 days 4 hours 10 minutes 53 seconds 605 msec
